<?xml version="1.0"?>
<VTKFile type="UnstructuredGrid"  version="0.1"  >
<UnstructuredGrid>
<Piece  NumberOfPoints="670" NumberOfCells="1192">
<Points>
<DataArray  type="Float64"  NumberOfComponents="3"  format="ascii">0 0 0  0.04 -1.31357e-10 0  0.0400579 0.0400582 0  0 0.04 0  0.08 -2.62713e-10 0  0.080123 0.0401093 0  0.12 -3.9407e-10 0  0.120183 0.040127 0  0.16 -5.25427e-10 0  0.160176 0.0400597 0  0.2 -6.56784e-10 0  0.199997 0.0399142 0  0.24 -7.8814e-10 0  0.239816 0.0400642 0  0.28 -9.19497e-10 0  0.279804 0.0401377 0  0.32 -1.05085e-09 0  0.319855 0.0401297 0  0.36 -1.18221e-09 0  0.359906 0.0400945 0  0.4 -1.31357e-09 0  0.399941 0.0400609 0  0.44 -1.44492e-09 0  0.439962 0.0400367 0  0.48 -1.57628e-09 0  0.479975 0.0400214 0  0.52 -1.70764e-09 0  0.519983 0.0400122 0  0.5600000000000001 -1.83899e-09 0  0.559987 0.0400069 0  0.6 -1.97035e-09 0  0.59999 0.040004 0  0.64 -2.10171e-09 0  0.639993 0.0400023 0  0.68 -2.23306e-09 0  0.679994 0.0400013 0  0.72 -2.36442e-09 0  0.7199950000000001 0.0400008 0  0.76 -2.49578e-09 0  0.759996 0.0400005 0  0.8 -2.62713e-09 0  0.799997 0.0400002 0  0.84 -2.75849e-09 0  0.839997 0.0400001 0  0.88 -2.88985e-09 0  0.8799979999999999 0.04 0  0.92 -3.0212e-09 0  0.919999 0.0399999 0  0.96 -3.15256e-09 0  0.959999 0.0399998 0  1 -3.28392e-09 0  1 0.0399998 0  1.04 -3.41527e-09 0  1.04 0.0399998 0  1.08 -3.54663e-09 0  1.08 0.0399998 0  1.12 -3.67799e-09 0  1.12 0.0399998 0  1.16 -3.80934e-09 0  1.16 0.0399999 0  1.2 -3.9407e-09 0  1.2 0.04 0  1.24 -4.07206e-09 0  1.24 0.04 0  1.28 -4.20341e-09 0  1.28 0.0400001 0  1.32 -4.33477e-09 0  1.32 0.0400001 0  1.36 -4.46613e-09 0  1.36 0.04 0  1.4 -4.59748e-09 0  1.4 0.04 0  1.44 -4.72884e-09 0  1.44 0.04 0  1.48 -4.8602e-09 0  1.48 0.04 0  1.52 -4.99156e-09 0  1.52 0.04 0  1.56 -5.12291e-09 0  1.56 0.04 0  1.6 -5.25427e-09 0  1.6 0.0400001 0  1.64 -5.38563e-09 0  1.64 0.0400001 0  1.68 -5.51698e-09 0  1.68 0.04 0  1.72 -5.64834e-09 0  1.72 0.04 0  1.76 -5.7797e-09 0  1.76 0.04 0  1.8 -5.91105e-09 0  1.8 0.04 0  1.84 -6.04241e-09 0  1.84 0.04 0  1.88 -6.17377e-09 0  1.88 0.0400001 0  1.92 -6.30512e-09 0  1.92 0.0400001 0  1.96 -6.43648e-09 0  1.96 0.0400001 0  2 -6.56784e-09 0  2 0.0400001 0  2.04 -6.69919e-09 0  2.04 0.0400001 0  2.08 -6.83055e-09 0  2.08 0.04 0  2.12 -6.96191e-09 0  2.12 0.04 0  2.16 -7.09326e-09 0  2.16 0.0400001 0  2.2 -7.22462e-09 0  2.2 0.04 0  2.24 -7.35598e-09 0  2.24 0.04 0  2.28 -7.48733e-09 0  2.28 0.0399999 0  2.32 -7.618690000000001e-09 0  2.32 0.04 0  2.36 -7.750049999999999e-09 0  2.36 0.04 0  2.4 -7.8814e-09 0  2.4 0.04 0  0.0401088 0.0801235 0  0 0.08 0  0.0802509 0.0802518 0  0.120434 0.0803392 0  0.160522 0.0801977 0  0.199995 0.0795328 0  0.239464 0.0802049 0  0.279544 0.08035689999999999 0  0.319711 0.0802867 0  0.359828 0.08018740000000001 0  0.399896 0.0801123 0  0.439933 0.0800646 0  0.479955 0.0800365 0  0.519968 0.08002049999999999 0  0.559976 0.0800116 0  0.599982 0.0800066 0  0.6399860000000001 0.0800039 0  0.679989 0.0800023 0  0.719991 0.0800014 0  0.759992 0.0800008 0  0.799994 0.0800004 0  0.839995 0.08000019999999999 0  0.879996 0.0799999 0  0.919997 0.07999970000000001 0  0.959999 0.0799996 0  1 0.0799995 0  1.04 0.0799995 0  1.08 0.0799996 0  1.12 0.07999970000000001 0  1.16 0.0799998 0  1.2 0.08 0  1.24 0.0800001 0  1.28 0.0800001 0  1.32 0.0800001 0  1.36 0.08 0  1.4 0.0799999 0  1.44 0.0799999 0  1.48 0.0799999 0  1.52 0.0799999 0  1.56 0.08 0  1.6 0.0800001 0  1.64 0.0800001 0  1.68 0.08 0  1.72 0.0799999 0  1.76 0.0799999 0  1.8 0.0799999 0  1.84 0.0799999 0  1.88 0.08 0  1.92 0.0800001 0  1.96 0.0800001 0  2 0.0800001 0  2.04 0.08 0  2.08 0.0799999 0  2.12 0.0799999 0  2.16 0.08 0  2.2 0.08 0  2.24 0.0799999 0  2.28 0.0799998 0  2.32 0.0799999 0  2.36 0.0799999 0  2.4 0.08 0  0.0401262 0.120184 0  0 0.12 0  0.0803378 0.120435 0  0.120779 0.12078 0  0.161485 0.120859 0  0.199996 0.117814 0  0.238503 0.120866 0  0.279195 0.120798 0  0.319616 0.120473 0  0.359799 0.120256 0  0.39988 0.120136 0  0.439921 0.120073 0  0.479944 0.120039 0  0.519958 0.120022 0  0.5599690000000001 0.120012 0  0.599976 0.120007 0  0.639981 0.120004 0  0.679985 0.120002 0  0.719987 0.120002 0  0.7599900000000001 0.120001 0  0.799991 0.12 0  0.839993 0.12 0  0.879995 0.12 0  0.919996 0.12 0  0.959998 0.119999 0  1 0.119999 0  1.04 0.119999 0  1.08 0.119999 0  1.12 0.12 0  1.16 0.12 0  1.2 0.12 0  1.24 0.12 0  1.28 0.12 0  1.32 0.12 0  1.36 0.12 0  1.4 0.12 0  1.44 0.12 0  1.48 0.12 0  1.52 0.12 0  1.56 0.12 0  1.6 0.12 0  1.64 0.12 0  1.68 0.12 0  1.72 0.12 0  1.76 0.12 0  1.8 0.12 0  1.84 0.12 0  1.88 0.12 0  1.92 0.12 0  1.96 0.12 0  2 0.12 0  2.04 0.12 0  2.08 0.12 0  2.12 0.12 0  2.16 0.12 0  2.2 0.12 0  2.24 0.12 0  2.28 0.12 0  2.32 0.12 0  2.36 0.12 0  2.4 0.12 0  0.0400582 0.160177 0  0 0.16 0  0.0801954 0.160525 0  0.120857 0.161488 0  0.164645 0.164645 0  0.2 0.15 0  0.235355 0.164645 0  0.279119 0.161498 0  0.319759 0.16055 0  0.359874 0.160228 0  0.399906 0.160104 0  0.439925 0.160051 0  0.479941 0.160027 0  0.519954 0.160014 0  0.559964 0.160008 0  0.5999719999999999 0.160005 0  0.639978 0.160003 0  0.679982 0.160002 0  0.719985 0.160001 0  0.759988 0.160001 0  0.79999 0.16 0  0.839992 0.16 0  0.8799940000000001 0.16 0  0.919996 0.159999 0  0.959998 0.159999 0  1 0.159999 0  1.04 0.159999 0  1.08 0.159999 0  1.12 0.16 0  1.16 0.16 0  1.2 0.16 0  1.24 0.16 0  1.28 0.16 0  1.32 0.16 0  1.36 0.16 0  1.4 0.16 0  1.44 0.16 0  1.48 0.16 0  1.52 0.16 0  1.56 0.16 0  1.6 0.16 0  1.64 0.16 0  1.68 0.16 0  1.72 0.16 0  1.76 0.16 0  1.8 0.16 0  1.84 0.16 0  1.88 0.16 0  1.92 0.16 0  1.96 0.16 0  2 0.16 0  2.04 0.16 0  2.08 0.16 0  2.12 0.16 0  2.16 0.16 0  2.2 0.16 0  2.24 0.16 0  2.28 0.16 0  2.32 0.16 0  2.36 0.16 0  2.4 0.16 0  0.0399111 0.2 0  0 0.2 0  0.0795281 0.2 0  0.117811 0.2 0  0.15 0.2 0  0.282167 0.2 0  0.25 0.2 0  0.320429 0.2 0  0.36003 0.200001 0  0.399944 0.200001 0  0.439934 0.200001 0  0.479942 0.200001 0  0.519953 0.200001 0  0.559963 0.200001 0  0.59997 0.200001 0  0.639976 0.200001 0  0.6799809999999999 0.200001 0  0.719984 0.200001 0  0.759987 0.200001 0  0.799989 0.2 0  0.839991 0.2 0  0.879993 0.2 0  0.919996 0.199999 0  0.959998 0.199999 0  1 0.199999 0  1.04 0.199999 0  1.08 0.199999 0  1.12 0.2 0  1.16 0.2 0  1.2 0.2 0  1.24 0.2 0  1.28 0.2 0  1.32 0.2 0  1.36 0.2 0  1.4 0.2 0  1.44 0.2 0  1.48 0.2 0  1.52 0.2 0  1.56 0.2 0  1.6 0.2 0  1.64 0.2 0  1.68 0.2 0  1.72 0.2 0  1.76 0.2 0  1.8 0.2 0  1.84 0.2 0  1.88 0.2 0  1.92 0.2 0  1.96 0.2 0  2 0.2 0  2.04 0.2 0  2.08 0.2 0  2.12 0.2 0  2.16 0.2 0  2.2 0.2 0  2.24 0.2 0  2.28 0.2 0  2.32 0.2 0  2.36 0.2 0  2.4 0.2 0  0.0400582 0.239823 0  0 0.24 0  0.0801953 0.239475 0  0.120857 0.238513 0  0.164645 0.235355 0  0.279119 0.238502 0  0.235355 0.235355 0  0.319759 0.239451 0  0.359873 0.239774 0  0.399905 0.239898 0  0.439925 0.239951 0  0.479941 0.239976 0  0.519954 0.239988 0  0.559964 0.239994 0  0.5999719999999999 0.239997 0  0.639977 0.239999 0  0.679982 0.24 0  0.719985 0.24 0  0.759987 0.24 0  0.79999 0.24 0  0.839992 0.24 0  0.8799940000000001 0.24 0  0.919996 0.239999 0  0.959998 0.239999 0  1 0.239999 0  1.04 0.239999 0  1.08 0.239999 0  1.12 0.24 0  1.16 0.24 0  1.2 0.24 0  1.24 0.24 0  1.28 0.24 0  1.32 0.24 0  1.36 0.24 0  1.4 0.24 0  1.44 0.24 0  1.48 0.24 0  1.52 0.24 0  1.56 0.24 0  1.6 0.24 0  1.64 0.24 0  1.68 0.24 0  1.72 0.24 0  1.76 0.24 0  1.8 0.24 0  1.84 0.24 0  1.88 0.24 0  1.92 0.24 0  1.96 0.24 0  2 0.24 0  2.04 0.24 0  2.08 0.24 0  2.12 0.24 0  2.16 0.24 0  2.2 0.24 0  2.24 0.24 0  2.28 0.24 0  2.32 0.24 0  2.36 0.24 0  2.4 0.24 0  0.0401261 0.279816 0  0 0.28 0  0.0803376 0.279565 0  0.120778 0.27922 0  0.161485 0.279141 0  0.2 0.25 0  0.199996 0.282186 0  0.238503 0.279135 0  0.279195 0.279202 0  0.319616 0.279528 0  0.359799 0.279745 0  0.39988 0.279865 0  0.43992 0.279929 0  0.479944 0.279962 0  0.519958 0.27998 0  0.559968 0.27999 0  0.599976 0.279995 0  0.639981 0.279998 0  0.679984 0.279999 0  0.719987 0.28 0  0.759989 0.28 0  0.799991 0.28 0  0.839993 0.28 0  0.879995 0.28 0  0.919997 0.279999 0  0.959998 0.279999 0  1 0.279999 0  1.04 0.279999 0  1.08 0.28 0  1.12 0.28 0  1.16 0.28 0  1.2 0.28 0  1.24 0.28 0  1.28 0.28 0  1.32 0.28 0  1.36 0.28 0  1.4 0.28 0  1.44 0.28 0  1.48 0.28 0  1.52 0.28 0  1.56 0.28 0  1.6 0.28 0  1.64 0.28 0  1.68 0.28 0  1.72 0.28 0  1.76 0.28 0  1.8 0.28 0  1.84 0.28 0  1.88 0.28 0  1.92 0.28 0  1.96 0.28 0  2 0.28 0  2.04 0.28 0  2.08 0.28 0  2.12 0.28 0  2.16 0.28 0  2.2 0.28 0  2.24 0.28 0  2.28 0.28 0  2.32 0.28 0  2.36 0.28 0  2.4 0.28 0  0.0401086 0.319877 0  0 0.32 0  0.08025060000000001 0.319748 0  0.120433 0.319661 0  0.160522 0.319802 0  0.199995 0.320467 0  0.239464 0.319795 0  0.279543 0.319643 0  0.31971 0.319714 0  0.359828 0.319813 0  0.399895 0.319889 0  0.439933 0.319937 0  0.479955 0.319965 0  0.519968 0.319981 0  0.559976 0.31999 0  0.599982 0.319995 0  0.6399860000000001 0.319998 0  0.679989 0.319999 0  0.719991 0.32 0  0.759992 0.32 0  0.799994 0.32 0  0.839995 0.32 0  0.879996 0.32 0  0.919998 0.32 0  0.959999 0.32 0  1 0.32 0  1.04 0.32 0  1.08 0.32 0  1.12 0.32 0  1.16 0.32 0  1.2 0.32 0  1.24 0.32 0  1.28 0.32 0  1.32 0.32 0  1.36 0.32 0  1.4 0.32 0  1.44 0.32 0  1.48 0.32 0  1.52 0.32 0  1.56 0.32 0  1.6 0.32 0  1.64 0.32 0  1.68 0.32 0  1.72 0.32 0  1.76 0.32 0  1.8 0.32 0  1.84 0.32 0  1.88 0.32 0  1.92 0.32 0  1.96 0.32 0  2 0.32 0  2.04 0.32 0  2.08 0.32 0  2.12 0.32 0  2.16 0.32 0  2.2 0.32 0  2.24 0.32 0  2.28 0.32 0  2.32 0.32 0  2.36 0.32 0  2.4 0.32 0  0.0400579 0.359942 0  0 0.36 0  0.0801229 0.359891 0  0.120183 0.359873 0  0.160175 0.35994 0  0.199997 0.360086 0  0.239816 0.359936 0  0.279804 0.359862 0  0.319855 0.359871 0  0.359906 0.359906 0  0.399941 0.35994 0  0.439962 0.359964 0  0.479975 0.359979 0  0.5199820000000001 0.359989 0  0.559987 0.359994 0  0.59999 0.359997 0  0.639993 0.359998 0  0.679994 0.359999 0  0.7199950000000001 0.36 0  0.759996 0.36 0  0.799997 0.36 0  0.839997 0.36 0  0.8799979999999999 0.36 0  0
[...]
<PointData  Scalars="f_10391-0"> 
<DataArray  type="Float64"  Name="f_10391-0"  format="ascii">3.1470933254167215e-02  3.1819060844110972e-02  3.2520079907085865e-02  3.1716693671264298e-02  3.1656286183645112e-02  3.3202490222636924e-02  2.9259293907506832e-02  3.0615753185731270e-02  2.4912829310255732e-02  2.5444816298220461e-02  2.0158744444916884e-02  2.0277931070009941e-02  1.5771487208560621e-02  1.5711923563413697e-02  1.2063827532412823e-02  1.1942607462411567e-02  9.0792674936040242e-03  8.9555363249308653e-03  6.7439649571967080e-03  6.6406655408347906e-03  4.9496463492515854e-03  4.8710841107474038e-03  3.5896595191077319e-03  3.5327769141530736e-03  2.5712685935239663e-03  2.5311785175859921e-03  1.8178478696554386e-03  1.7900453822767572e-03  1.2675429500736408e-03  1.2484777533526578e-03  8.7107416219006422e-04  8.5809928526929655e-04  5.8959386148079069e-04  5.8081922507198004e-04  3.9282785269621263e-04  3.8694053571731909e-04  2.5749952156565992e-04  2.5357799884081583e-04  1.6598587950278777e-04  1.6339490469678602e-04  1.0517211180546026e-04  1.0347586646742366e-04  6.5477611005139289e-05  6.4379290290714116e-05  4.0039406956961748e-05  3.9335767051476916e-05  2.4039876840326694e-05  2.3594648594858907e-05  1.4167041315773106e-05  1.3889307625619187e-05  8.1919203845707339e-06  8.0210337095254613e-06  4.6463260808776494e-06  4.5428556988574245e-06  2.5841072735616463e-06  2.5224670184463283e-06  1.4087925985662830e-06  1.3726926552722439e-06  7.5262082954342295e-07  7.3185140052977276e-07  3.9386927215348007e-07  3.8213885787907402e-07  2.0184806277779034e-07  1.9534850097957965e-07  1.0126015255245942e-07  9.7729340856690146e-08  4.9708686347035240e-08  4.7829254602489552e-08  2.3869094304655209e-08  2.2889391293140692e-08  1.1206509644859465e-08  1.0706649700068208e-08  5.1421508937231417e-09  4.8926584197851865e-09  2.3049146808653006e-09  2.1831575378046692e-09  1.0087412308331827e-09  9.5067399279860862e-10  4.3080372703130004e-10  4.0375579504302316e-10  1.7942819622992065e-10  1.6712926317172736e-10  7.2831963686393759e-11  6.7375926468370437e-11  2.8790421038222803e-11  2.6430515118935023e-11  1.1073936983920276e-11  1.0079362444524531e-11  4.1406246324525193e-12  3.7325006145349742e-12  1.5033380094696499e-12  1.3404030388408086e-12  5.2930886939032306e-13  4.6607974918810913e-13  1.8044777184550431e-13  1.5662102124674469e-13  5.9452336571910914e-14  5.0743735669105922e-14  1.8886535807803523e-14  1.5803511912900692e-14  5.7679014834456319e-15  4.7124346710354074e-15  1.6868546446318581e-15  1.3381209685582145e-15  4.6991435842592024e-16  3.5898347488167893e-16  1.2373653284712024e-16  8.9871405860217417e-17  3.0431334751864914e-17  2.0550833639539773e-17  6.8477200163566731e-18  4.1086364636874327e-18  1.3525957581081703e-18  6.3721674927448580e-19  2.0999016940287252e-19  3.6325296014908024e-20  1.3589001474164616e-20  -2.4687720701511849e-20  -7.8949035505602038e-21  -1.5256691771632737e-20  -8.2598558835114212e-21  -1.0016691257741154e-20  3.2923532223662774e-02  3.1276701416897749e-02  3.6235043022293821e-02  3.4040669268987966e-02  2.6698414659422243e-02  2.0411369084259567e-02  1.5386217139737172e-02  1.1495875779684899e-02  8.5509184015717336e-03  6.3246436812487783e-03  4.6406745077668217e-03  3.3707980036576956e-03  2.4197015502758746e-03  1.7144150205357521e-03  1.1977170053427131e-03  8.2435508503483825e-04  5.5860140878909430e-04  3.7244432187435761e-04  2.4421442450792277e-04  1.5741108645631689e-04  9.9692587575705424e-05  6.2015012095571596e-05  3.7876829475716840e-05  2.2705980661730139e-05  1.3354929866611515e-05  7.7044542473051617e-06  4.3580721422571378e-06  2.4162660655644607e-06  1.3126302596576795e-06  6.9844490069123435e-07  3.6387672455529598e-07  1.8554225903275796e-07  9.2560129803137868e-08  4.5155877954114794e-08  2.1533725160139961e-08  1.0032985102445003e-08  4.5648096717807197e-09  2.0269950996392858e-09  8.7791595641229931e-10  3.7061910533185680e-10  1.5238686039730578e-10  6.0973429820833571e-11  2.3718287537088798e-11  8.9595462090952438e-12  3.2822771796909574e-12  1.1643093222674284e-12  3.9915066928048581e-13  1.3193249857022579e-13  4.1918052535087435e-14  1.2751271368304276e-14  3.6933925079906484e-15  1.0105330193374670e-15  2.5792658925622492e-16  6.0089001945390294e-17  1.2218106077841472e-17  1.9158219148751413e-18  1.0258124582983160e-19  -8.1150826810463416e-20  -4.6520069419602216e-20  -1.7923800155404765e-20  -9.7620550469518061e-21  2.9952265994633243e-02  2.8504426634347581e-02  3.3636769750635218e-02  3.2702517270539501e-02  2.6249321146782380e-02  1.9906986008455134e-02  1.4424957795259596e-02  1.0550423488088465e-02  7.8120285968901297e-03  5.7920076163963897e-03  4.2693726930707662e-03  3.1162324613809114e-03  2.2470853791837814e-03  1.5983963845750398e-03  1.1203792661173507e-03  7.7326256343103797e-04  5.2515991234703828e-04  3.5077223335019492e-04  2.3031967249539150e-04  1.4859953978034341e-04  9.4174143724834615e-05  5.8600661290443481e-05  3.5791862449213808e-05  2.1450418455553008e-05  1.2609605349835441e-05  7.2684205096719126e-06  4.1069254817699098e-06  2.2738955984763682e-06  1.2332369355535737e-06  6.5491688900300478e-07  3.4042643795849150e-07  1.7313457791143281e-07  8.6116050406836381e-08  4.1872510690592033e-08  1.9893433334722851e-08  9.2299882224483783e-09  4.1798299752188125e-09  1.8463510940806284e-09  7.9500902542897600e-10  3.3342760442086871e-10  1.3609134505069776e-10  5.4005070049026788e-11  2.0812466413785885e-11  7.7789952859231611e-12  2.8154710882918507e-12  9.8486598827565745e-13  3.3217910702713441e-13  1.0770186201543310e-13  3.3434688492083965e-14  9.8834634280316556e-15  2.7598680460632661e-15  7.1894499205959532e-16  1.7094249062857829e-16  3.5470566791392352e-17  5.6729739937446359e-18  3.0760782669821328e-19  -2.5166720304508342e-19  -1.4631553209997364e-19  -5.4176315427950256e-20  -1.6919851212885046e-20  -8.0048558129518252e-21  2.4409601780328118e-02  2.3802485944102472e-02  2.5878219312346386e-02  2.5774149006411333e-02  2.3461592961001618e-02  1.8958682209062522e-02  1.2113169791891273e-02  8.9053279199993746e-03  6.7283550901832672e-03  5.0755390982993752e-03  3.7909137260193908e-03  2.7951055391165977e-03  2.0315333996346408e-03  1.4542457820617570e-03  1.0245858636607895e-03  7.1009785210440800e-04  4.8389168608344452e-04  3.2408690558610839e-04  2.1325242562826515e-04  1.3781307446736896e-04  8.7440884572742342e-05  5.4452918973197838e-05  3.3271643170933803e-05  1.9940579933666247e-05  1.1718481633702195e-05  6.7504720632063406e-06  3.8106044034276872e-06  2.1071161434061099e-06  1.1409346505684858e-06  6.0471241031402786e-07  3.1360276131713042e-07  1.5906390205748332e-07  7.8873323049724316e-08  3.8216193096791284e-08  1.8084187720148462e-08  8.3529670533059504e-09  3.7636146086899933e-09  1.6530895592027716e-09  7.0726875893794025e-10  2.9450823282960256e-10  1.1923706502327177e-10  4.6885284234775013e-11  1.7881343579874370e-11  6.6041948099180974e-12  2.3575892015833111e-12  8.1155503815704130e-13  2.6857141839402486e-13  8.5107231407527945e-14  2.5683954509256467e-14  7.3230522691305508e-15  1.9482712434165946e-15  4.7328517850247460e-16  1.0042078020496133e-16  1.6467395372416032e-17  9.4764932788164054e-19  -7.4215204046549385e-19  -4.4459014023411889e-19  -1.6803832798505130e-19  -5.1106970081365456e-20  -1.3508886220765190e-20  -5.4296337976585621e-21  1.9014382605815356e-02  1.8839856268338860e-02  1.9307730570898154e-02  1.9038384905662311e-02  1.8276391153766103e-02  6.7151506418283418e-03  7.7919523759405500e-03  5.4753190163962647e-03  4.2867305036854266e-03  3.2716211855290558e-03  2.4475128115614801e-03  1.7980614191463820e-03  1.2978611673864755e-03  9.2048486424326057e-04  6.4138267456991080e-04  4.3896891533070937e-04  2.9502984349711291e-04  1.9467620542893500e-04  1.2608308473468501e-04  8.0129636863180754e-05  4.9957331939127657e-05  3.0546199242551191e-05  1.8312107830149161e-05  1.0760260794503250e-05  6.1954274994452055e-06  3.4942549384846760e-06  1.9297964788590103e-06  1.0432368693305934e-06  5.5182768480050511e-07  2.8549189692817970e-07  1.4439858151440847e-07  7.1368321282238638e-08  3.4450781069905055e-08  1.6233096623455892e-08  7.4618474464766832e-09  3.3437951204019123e-09  1.4596628535640795e-09  6.2017519814994102e-10  2.5621382430213994e-10  1.0280853996388182e-10  4.0015026525176841e-11  1.5083586081320456e-11  5.4960331479950311e-12  1.9312337657407852e-12  6.5246618253256238e-13  2.1110650983009873e-13  6.5058712274400628e-14  1.8947116143196233e-14  5.1506213199475919e-15  1.2792642021272380e-15  2.7789128340750734e-16  4.6859478819266795e-17  2.9240547678942679e-18  -2.1087393607264406e-18  -1.3109566736868008e-18  -5.0832857367587790e-19  -1.5805925792072698e-19  -4.1217966304789646e-20  -8.9490988903298822e-21  -2.6779114178835790e-21  1.4475899018800496e-02  1.4499683510290580e-02  1.4271339810577231e-02  1.3522137244450503e-02  1.1462423634962219e-02  5.4690721911546166e-03  6.1974137303992148e-03  4.5156015365882722e-03  3.5994621937700758e-03  2.7929464614248017e-03  2.1182251677331989e-03  1.5735261657669108e-03  1.1460806640832279e-03  8.1884864079186353e-04  5.7400958932114657e-04  3.9480335056279965e-04  2.6641219246971795e-04  1.7636051192276657e-04  1.1451261135765866e-04  7.2916144204573919e-05  4.5523208102471708e-05  2.7859801376186109e-05  1.6709050577890060e-05  9.8182464541608291e-06  5.6506429303280298e-06  3.1843344541701918e-06  1.7564541823877053e-06  9.4796175625293414e-07  5.0039373604261290e-07  2.5823404728504334e-07  1.3022518752297504e-07  6.4141328844201293e-08  3.0839228852240773e-08  1.4465341539415643e-08  6.6148786527012313e-09  2.9468429469389923e-09  1.2778090052532206e-09  5.3880153797020504e-10  2.2067886498368846e-10  8.7678668114405950e-11  3.3740610612693476e-11  1.2552169397306107e-11  4.5037709451884758e-12  1.5539340143880506e-12  5.1355344750246652e-13  1.6169603535007839e-13  4.8126962345670862e-14  1.3377519000843536e-14  3.4004395368574844e-15  7.5745181237825616e-16  1.3179294781667591e-16  9.0949933189682650e-18  -5.8023341780243889e-18  -3.7786388106042283e-18  -1.5077867260668323e-18  -4.8108114244788641e-19  -1.2869702070364536e-19  -2.8181075965450759e-20  -4.2911326061417446e-21  -2.3286701648767856e-22  1.1056341576463820e-02  1.1160060482597123e-02  1.0690532318811886e-02  9.9176823081889073e-03  8.5165242586278840e-03  7.5661584930936925e-03  6.6102014203046440e-03  5.4890979190100816e-03  4.6083381568403419e-03  3.7982653939061879e-03  3.0556015191764382e-03  2.3984137431758883e-03  1.8393286049249720e-03  1.3798932275922945e-03  1.0136079225915916e-03  7.2940238975428167e-04  5.1437518944235869e-04  3.5554336600530109e-04  2.4090034749052304e-04  1.5999504594620210e-04  1.0415507867407044e-04  6.6452217197218930e-05  4.1546131772323350e-05  2.5448660848712295e-05  1.5269367813424695e-05  8.9721283545317387e-06  5.1612774275315585e-06  2.9059716864394430e-06  1.6008014260344180e-06  8.6245289536543057e-07  4.5426448520938994e-07  2.3381025171607828e-07  1.1754053527195191e-07  5.7682999855462855e-08  2.7617612819160777e-08  1.2891861445445352e-08  5.8629307575043161e-09  2.5954941712717731e-09  1.1174200520367553e-09  4.6733090714768262e-10  1.8961940863305805e-10  7.4528705840760122e-11  2.8322911111593430e-11  1.0383022804305128e-11  3.6610621837124125e-12  1.2368394289807044e-12  3.9824421748175243e-13  1.2128396151004361e-13  3.4525058037091469e-14  9.0014233799331239e-15  2.0635164460379847e-15  3.7341847259961582e-16  2.9732551268629494e-17  -1.5254774325170361e-17  -1.0667608586260154e-17  -4.4125687871269121e-18  -1.4516113871622502e-18  -4.0034701637388779e-19  -9.0891489526360765e-20  -1.4920547325365215e-20  -2.5673820164325707e-22  1.6271890125010008e-21  8.7612507207048620e-03  8.8833319982228164e-03  8.3933215244072160e-03  7.7549759496264303e-03  6.8226424308572130e-03  5.7142437050712340e-03  4.7956357854296435e-03  4.0051990499639150e-03  3.3009163252386911e-03  2.6677513424994376e-03  2.1090261925209440e-03  1.6301830214635539e-03  1.2323171929371146e-03  9.1144094068227818e-04  6.5982573439194142e-04  4.6769221131170866e-04  3.2465696664507181e-04  2.2074259849581910e-04  1.4702013898245476e-04  9.5918851348203169e-05  6.1296752274113029e-05  3.8365863711425354e-05  2.3515830352597784e-05  1.4112272483633967e-05  8.2902466583137252e-06  4.7659708257493422e-06  2.6805552103578978e-06  1.4744587185326960e-06  7.9288530915791948e-07  4.1665284412849612e-07  2.1385595088883697e-07  1.0715835301848498e-07  5.2388736350830706e-08  2.4973376695270725e-08  1.1599245458827827e-08  5.2449270095214286e-09  2.3067456613748546e-09  9.8569073985348990e-10  4.0870736867687937e-10  1.6419568367149357e-10  6.3796689291070353e-11  2.3919105889942528e-11  8.6290571046222711e-12  2.9842229997897734e-12  9.8432347860061863e-13  3.0740381932274247e-13  8.9879771332492806e-14  2.4138545816935750e-14  5.7353658296518022e-15  1.0960033333066302e-15  1.0737721209610148e-16  -3.6373824876118191e-17  -2.9244941355793310e-17  -1.2749833845997437e-17  -4.3667380278336898e-18  -1.2524204200004044e-18  -2.9763780716727340e-19  -5.2891286165426474e-20  -3.3443112803523872e-21  2.7929621108039909e-21  2.8180490950437905e-21  7.4694526757949848e-03  7.5937289195234002e-03  7.1344021634992989e-03  6.6032511956115644e-03  5.9011376630523594e-03  5.1024725114973022e-03  4.3381081883402646e-03  3.6375716289239069e-03  3.0035523537552283e-03  2.4343788689080489e-03  1.9324036968830784e-03  1.5007108312640927e-03  1.1398383541726216e-03  8.4677906266239218e-04  6.1541799443953706e-04  4.3768102195079430e-04  3.0466821803253914e-04  2.0761712821392483e-04  1.3851836742777841e-04  9.0486191075993597e-05  5.7873861679160892e-05  3.6239682764490747e-05  2.2213922628366748e-05  1.3327112207954775e-05  7.8238957652332758e-06  4.4934388631917218e-06  2.5238626131760379e-06  1.3858982047317014e-06  7.4371144425874451e-07  3.8984571030962185e-07  1.9951752466922281e-07  9.9638836916978212e-08  4.8525018392405865e-08  2.3029701233493545e-08  1.0642703395212172e-08  4.7847915203142175e-09  2.0905814181095744e-09  8.8661129798829510e-10  3.6444524838397110e-10  1.4494574453938444e-10  5.5656904179081179e-11  2.0577612326542962e-11  7.2996325767226912e-12  2.4726714637942269e-12  7.9442335212814122e-13  2.3960958614159312e-13  6.6701165100064072e-14  1.6592197283504032e-14  3.4150221599351281e-15  4.3087948985658642e-16  -6.6373006471292847e-17  -7.5832250717182223e-17  -3.6059828913457206e-17  -1.3076583381564155e-17  -3.9522074837062096e-18  -9.9765145333984243e-19  -1.9534150940645969e-19  -1.9708072570691303e-20  5.6773952520337915e-21  4.8131474518054325e-21  3.3869163760843869e-21  7.0619069587367078e-03  7.2199542332465772e-03  6.7351803075935794e-03  6.2402307547757543e-03  5.6050348334737970e-03  4.8883629368463386e-03  4.1759510547070833e-03  3.5092914311250422e-03  2.9009342465360489e-03  2.3538780020494849e-03  1.8710856083928125e-03  1.4553001760820858e-03  1.1070051595282139e-03  8.2349475690055441e-04  5.9917422171019519e-04  4.2650504655330541e-04  2.9707754145683133e-04  2.0251993597223604e-04  1.3513568145835964e-04  8.8267799039579199e-05  5.6436783494516871e-05  3.5320159531389876e-05  2.1633702415685276e-05  1.2966190267213071e-05  7.6027476858304939e-06  4.3600130100103289e-06  2.4446980440707905e-06  1.3397494934907878e-06  7.1730208847748767e-07  3.7502199491407318e-07  1.9136310477792938e-07  9.5246416558299908e-08  4.6210144219994806e-08  2.1837093165515378e-08  1.0042579181213712e-08  4.4900981191313308e-09  1.9494972504043667e-09  8.2082594357021777e-10  3.3460179914155808e-10  1.3179012017147577e-10  5.0029335656324019e-11  1.8245293892421910e-11  6.3648798910410715e-12  2.1112147330449988e-12  6.5995285349012629e-13  1.9165784361642881e-13  5.0392295506853220e-14  1.1339183424070518e-14  1.8298573586101941e-15  -9.2497869010799795e-18  -1.7496512429233847e-16  -9.7689977653427401e-17  -3.8555431399450519e-17  -1.2494901696677730e-17  -3.4019750082744933e-18  -7.4534305618553473e-19  -1.0588300354752850e-19  6.7151587791275727e-21  1.2137765316771151e-20  5.9940238413692608e-21  3.3691125122733697e-21  </DataArray> 
</PointData> 
</Piece>
</UnstructuredGrid>
</VTKFile>