<?xml version="1.0"?>
<VTKFile type="UnstructuredGrid"  version="0.1"  >
<UnstructuredGrid>
<Piece  NumberOfPoints="670" NumberOfCells="1192">
<Points>
<DataArray  type="Float64"  NumberOfComponents="3"  format="ascii">0 0 0  0.04 -1.31357e-10 0  0.0400579 0.0400582 0  0 0.04 0  0.08 -2.62713e-10 0  0.080123 0.0401093 0  0.12 -3.9407e-10 0  0.120183 0.040127 0  0.16 -5.25427e-10 0  0.160176 0.0400597 0  0.2 -6.56784e-10 0  0.199997 0.0399142 0  0.24 -7.8814e-10 0  0.239816 0.0400642 0  0.28 -9.19497e-10 0  0.279804 0.0401377 0  0.32 -1.05085e-09 0  0.319855 0.0401297 0  0.36 -1.18221e-09 0  0.359906 0.0400945 0  0.4 -1.31357e-09 0  0.399941 0.0400609 0  0.44 -1.44492e-09 0  0.439962 0.0400367 0  0.48 -1.57628e-09 0  0.479975 0.0400214 0  0.52 -1.70764e-09 0  0.519983 0.0400122 0  0.5600000000000001 -1.83899e-09 0  0.559987 0.0400069 0  0.6 -1.97035e-09 0  0.59999 0.040004 0  0.64 -2.10171e-09 0  0.639993 0.0400023 0  0.68 -2.23306e-09 0  0.679994 0.0400013 0  0.72 -2.36442e-09 0  0.7199950000000001 0.0400008 0  0.76 -2.49578e-09 0  0.759996 0.0400005 0  0.8 -2.62713e-09 0  0.799997 0.0400002 0  0.84 -2.75849e-09 0  0.839997 0.0400001 0  0.88 -2.88985e-09 0  0.8799979999999999 0.04 0  0.92 -3.0212e-09 0  0.919999 0.0399999 0  0.96 -3.15256e-09 0  0.959999 0.0399998 0  1 -3.28392e-09 0  1 0.0399998 0  1.04 -3.41527e-09 0  1.04 0.0399998 0  1.08 -3.54663e-09 0  1.08 0.0399998 0  1.12 -3.67799e-09 0  1.12 0.0399998 0  1.16 -3.80934e-09 0  1.16 0.0399999 0  1.2 -3.9407e-09 0  1.2 0.04 0  1.24 -4.07206e-09 0  1.24 0.04 0  1.28 -4.20341e-09 0  1.28 0.0400001 0  1.32 -4.33477e-09 0  1.32 0.0400001 0  1.36 -4.46613e-09 0  1.36 0.04 0  1.4 -4.59748e-09 0  1.4 0.04 0  1.44 -4.72884e-09 0  1.44 0.04 0  1.48 -4.8602e-09 0  1.48 0.04 0  1.52 -4.99156e-09 0  1.52 0.04 0  1.56 -5.12291e-09 0  1.56 0.04 0  1.6 -5.25427e-09 0  1.6 0.0400001 0  1.64 -5.38563e-09 0  1.64 0.0400001 0  1.68 -5.51698e-09 0  1.68 0.04 0  1.72 -5.64834e-09 0  1.72 0.04 0  1.76 -5.7797e-09 0  1.76 0.04 0  1.8 -5.91105e-09 0  1.8 0.04 0  1.84 -6.04241e-09 0  1.84 0.04 0  1.88 -6.17377e-09 0  1.88 0.0400001 0  1.92 -6.30512e-09 0  1.92 0.0400001 0  1.96 -6.43648e-09 0  1.96 0.0400001 0  2 -6.56784e-09 0  2 0.0400001 0  2.04 -6.69919e-09 0  2.04 0.0400001 0  2.08 -6.83055e-09 0  2.08 0.04 0  2.12 -6.96191e-09 0  2.12 0.04 0  2.16 -7.09326e-09 0  2.16 0.0400001 0  2.2 -7.22462e-09 0  2.2 0.04 0  2.24 -7.35598e-09 0  2.24 0.04 0  2.28 -7.48733e-09 0  2.28 0.0399999 0  2.32 -7.618690000000001e-09 0  2.32 0.04 0  2.36 -7.750049999999999e-09 0  2.36 0.04 0  2.4 -7.8814e-09 0  2.4 0.04 0  0.0401088 0.0801235 0  0 0.08 0  0.0802509 0.0802518 0  0.120434 0.0803392 0  0.160522 0.0801977 0  0.199995 0.0795328 0  0.239464 0.0802049 0  0.279544 0.08035689999999999 0  0.319711 0.0802867 0  0.359828 0.08018740000000001 0  0.399896 0.0801123 0  0.439933 0.0800646 0  0.479955 0.0800365 0  0.519968 0.08002049999999999 0  0.559976 0.0800116 0  0.599982 0.0800066 0  0.6399860000000001 0.0800039 0  0.679989 0.0800023 0  0.719991 0.0800014 0  0.759992 0.0800008 0  0.799994 0.0800004 0  0.839995 0.08000019999999999 0  0.879996 0.0799999 0  0.919997 0.07999970000000001 0  0.959999 0.0799996 0  1 0.0799995 0  1.04 0.0799995 0  1.08 0.0799996 0  1.12 0.07999970000000001 0  1.16 0.0799998 0  1.2 0.08 0  1.24 0.0800001 0  1.28 0.0800001 0  1.32 0.0800001 0  1.36 0.08 0  1.4 0.0799999 0  1.44 0.0799999 0  1.48 0.0799999 0  1.52 0.0799999 0  1.56 0.08 0  1.6 0.0800001 0  1.64 0.0800001 0  1.68 0.08 0  1.72 0.0799999 0  1.76 0.0799999 0  1.8 0.0799999 0  1.84 0.0799999 0  1.88 0.08 0  1.92 0.0800001 0  1.96 0.0800001 0  2 0.0800001 0  2.04 0.08 0  2.08 0.0799999 0  2.12 0.0799999 0  2.16 0.08 0  2.2 0.08 0  2.24 0.0799999 0  2.28 0.0799998 0  2.32 0.0799999 0  2.36 0.0799999 0  2.4 0.08 0  0.0401262 0.120184 0  0 0.12 0  0.0803378 0.120435 0  0.120779 0.12078 0  0.161485 0.120859 0  0.199996 0.117814 0  0.238503 0.120866 0  0.279195 0.120798 0  0.319616 0.120473 0  0.359799 0.120256 0  0.39988 0.120136 0  0.439921 0.120073 0  0.479944 0.120039 0  0.519958 0.120022 0  0.5599690000000001 0.120012 0  0.599976 0.120007 0  0.639981 0.120004 0  0.679985 0.120002 0  0.719987 0.120002 0  0.7599900000000001 0.120001 0  0.799991 0.12 0  0.839993 0.12 0  0.879995 0.12 0  0.919996 0.12 0  0.959998 0.119999 0  1 0.119999 0  1.04 0.119999 0  1.08 0.119999 0  1.12 0.12 0  1.16 0.12 0  1.2 0.12 0  1.24 0.12 0  1.28 0.12 0  1.32 0.12 0  1.36 0.12 0  1.4 0.12 0  1.44 0.12 0  1.48 0.12 0  1.52 0.12 0  1.56 0.12 0  1.6 0.12 0  1.64 0.12 0  1.68 0.12 0  1.72 0.12 0  1.76 0.12 0  1.8 0.12 0  1.84 0.12 0  1.88 0.12 0  1.92 0.12 0  1.96 0.12 0  2 0.12 0  2.04 0.12 0  2.08 0.12 0  2.12 0.12 0  2.16 0.12 0  2.2 0.12 0  2.24 0.12 0  2.28 0.12 0  2.32 0.12 0  2.36 0.12 0  2.4 0.12 0  0.0400582 0.160177 0  0 0.16 0  0.0801954 0.160525 0  0.120857 0.161488 0  0.164645 0.164645 0  0.2 0.15 0  0.235355 0.164645 0  0.279119 0.161498 0  0.319759 0.16055 0  0.359874 0.160228 0  0.399906 0.160104 0  0.439925 0.160051 0  0.479941 0.160027 0  0.519954 0.160014 0  0.559964 0.160008 0  0.5999719999999999 0.160005 0  0.639978 0.160003 0  0.679982 0.160002 0  0.719985 0.160001 0  0.759988 0.160001 0  0.79999 0.16 0  0.839992 0.16 0  0.8799940000000001 0.16 0  0.919996 0.159999 0  0.959998 0.159999 0  1 0.159999 0  1.04 0.159999 0  1.08 0.159999 0  1.12 0.16 0  1.16 0.16 0  1.2 0.16 0  1.24 0.16 0  1.28 0.16 0  1.32 0.16 0  1.36 0.16 0  1.4 0.16 0  1.44 0.16 0  1.48 0.16 0  1.52 0.16 0  1.56 0.16 0  1.6 0.16 0  1.64 0.16 0  1.68 0.16 0  1.72 0.16 0  1.76 0.16 0  1.8 0.16 0  1.84 0.16 0  1.88 0.16 0  1.92 0.16 0  1.96 0.16 0  2 0.16 0  2.04 0.16 0  2.08 0.16 0  2.12 0.16 0  2.16 0.16 0  2.2 0.16 0  2.24 0.16 0  2.28 0.16 0  2.32 0.16 0  2.36 0.16 0  2.4 0.16 0  0.0399111 0.2 0  0 0.2 0  0.0795281 0.2 0  0.117811 0.2 0  0.15 0.2 0  0.282167 0.2 0  0.25 0.2 0  0.320429 0.2 0  0.36003 0.200001 0  0.399944 0.200001 0  0.439934 0.200001 0  0.479942 0.200001 0  0.519953 0.200001 0  0.559963 0.200001 0  0.59997 0.200001 0  0.639976 0.200001 0  0.6799809999999999 0.200001 0  0.719984 0.200001 0  0.759987 0.200001 0  0.799989 0.2 0  0.839991 0.2 0  0.879993 0.2 0  0.919996 0.199999 0  0.959998 0.199999 0  1 0.199999 0  1.04 0.199999 0  1.08 0.199999 0  1.12 0.2 0  1.16 0.2 0  1.2 0.2 0  1.24 0.2 0  1.28 0.2 0  1.32 0.2 0  1.36 0.2 0  1.4 0.2 0  1.44 0.2 0  1.48 0.2 0  1.52 0.2 0  1.56 0.2 0  1.6 0.2 0  1.64 0.2 0  1.68 0.2 0  1.72 0.2 0  1.76 0.2 0  1.8 0.2 0  1.84 0.2 0  1.88 0.2 0  1.92 0.2 0  1.96 0.2 0  2 0.2 0  2.04 0.2 0  2.08 0.2 0  2.12 0.2 0  2.16 0.2 0  2.2 0.2 0  2.24 0.2 0  2.28 0.2 0  2.32 0.2 0  2.36 0.2 0  2.4 0.2 0  0.0400582 0.239823 0  0 0.24 0  0.0801953 0.239475 0  0.120857 0.238513 0  0.164645 0.235355 0  0.279119 0.238502 0  0.235355 0.235355 0  0.319759 0.239451 0  0.359873 0.239774 0  0.399905 0.239898 0  0.439925 0.239951 0  0.479941 0.239976 0  0.519954 0.239988 0  0.559964 0.239994 0  0.5999719999999999 0.239997 0  0.639977 0.239999 0  0.679982 0.24 0  0.719985 0.24 0  0.759987 0.24 0  0.79999 0.24 0  0.839992 0.24 0  0.8799940000000001 0.24 0  0.919996 0.239999 0  0.959998 0.239999 0  1 0.239999 0  1.04 0.239999 0  1.08 0.239999 0  1.12 0.24 0  1.16 0.24 0  1.2 0.24 0  1.24 0.24 0  1.28 0.24 0  1.32 0.24 0  1.36 0.24 0  1.4 0.24 0  1.44 0.24 0  1.48 0.24 0  1.52 0.24 0  1.56 0.24 0  1.6 0.24 0  1.64 0.24 0  1.68 0.24 0  1.72 0.24 0  1.76 0.24 0  1.8 0.24 0  1.84 0.24 0  1.88 0.24 0  1.92 0.24 0  1.96 0.24 0  2 0.24 0  2.04 0.24 0  2.08 0.24 0  2.12 0.24 0  2.16 0.24 0  2.2 0.24 0  2.24 0.24 0  2.28 0.24 0  2.32 0.24 0  2.36 0.24 0  2.4 0.24 0  0.0401261 0.279816 0  0 0.28 0  0.0803376 0.279565 0  0.120778 0.27922 0  0.161485 0.279141 0  0.2 0.25 0  0.199996 0.282186 0  0.238503 0.279135 0  0.279195 0.279202 0  0.319616 0.279528 0  0.359799 0.279745 0  0.39988 0.279865 0  0.43992 0.279929 0  0.479944 0.279962 0  0.519958 0.27998 0  0.559968 0.27999 0  0.599976 0.279995 0  0.639981 0.279998 0  0.679984 0.279999 0  0.719987 0.28 0  0.759989 0.28 0  0.799991 0.28 0  0.839993 0.28 0  0.879995 0.28 0  0.919997 0.279999 0  0.959998 0.279999 0  1 0.279999 0  1.04 0.279999 0  1.08 0.28 0  1.12 0.28 0  1.16 0.28 0  1.2 0.28 0  1.24 0.28 0  1.28 0.28 0  1.32 0.28 0  1.36 0.28 0  1.4 0.28 0  1.44 0.28 0  1.48 0.28 0  1.52 0.28 0  1.56 0.28 0  1.6 0.28 0  1.64 0.28 0  1.68 0.28 0  1.72 0.28 0  1.76 0.28 0  1.8 0.28 0  1.84 0.28 0  1.88 0.28 0  1.92 0.28 0  1.96 0.28 0  2 0.28 0  2.04 0.28 0  2.08 0.28 0  2.12 0.28 0  2.16 0.28 0  2.2 0.28 0  2.24 0.28 0  2.28 0.28 0  2.32 0.28 0  2.36 0.28 0  2.4 0.28 0  0.0401086 0.319877 0  0 0.32 0  0.08025060000000001 0.319748 0  0.120433 0.319661 0  0.160522 0.319802 0  0.199995 0.320467 0  0.239464 0.319795 0  0.279543 0.319643 0  0.31971 0.319714 0  0.359828 0.319813 0  0.399895 0.319889 0  0.439933 0.319937 0  0.479955 0.319965 0  0.519968 0.319981 0  0.559976 0.31999 0  0.599982 0.319995 0  0.6399860000000001 0.319998 0  0.679989 0.319999 0  0.719991 0.32 0  0.759992 0.32 0  0.799994 0.32 0  0.839995 0.32 0  0.879996 0.32 0  0.919998 0.32 0  0.959999 0.32 0  1 0.32 0  1.04 0.32 0  1.08 0.32 0  1.12 0.32 0  1.16 0.32 0  1.2 0.32 0  1.24 0.32 0  1.28 0.32 0  1.32 0.32 0  1.36 0.32 0  1.4 0.32 0  1.44 0.32 0  1.48 0.32 0  1.52 0.32 0  1.56 0.32 0  1.6 0.32 0  1.64 0.32 0  1.68 0.32 0  1.72 0.32 0  1.76 0.32 0  1.8 0.32 0  1.84 0.32 0  1.88 0.32 0  1.92 0.32 0  1.96 0.32 0  2 0.32 0  2.04 0.32 0  2.08 0.32 0  2.12 0.32 0  2.16 0.32 0  2.2 0.32 0  2.24 0.32 0  2.28 0.32 0  2.32 0.32 0  2.36 0.32 0  2.4 0.32 0  0.0400579 0.359942 0  0 0.36 0  0.0801229 0.359891 0  0.120183 0.359873 0  0.160175 0.35994 0  0.199997 0.360086 0  0.239816 0.359936 0  0.279804 0.359862 0  0.319855 0.359871 0  0.359906 0.359906 0  0.399941 0.35994 0  0.439962 0.359964 0  0.479975 0.359979 0  0.5199820000000001 0.359989 0  0.559987 0.359994 0  0.59999 0.359997 0  0.639993 0.359998 0  0.679994 0.359999 0  0.7199950000000001 0.36 0  0.759996 0.36 0  0.799997 0.36 0  0.839997 0.36 0  0.8799979999999999 0.36 0  0
[...]
<PointData  Scalars="f_10391-0"> 
<DataArray  type="Float64"  Name="f_10391-0"  format="ascii">3.3294703525485032e-02  3.3630850867072959e-02  3.4307980927677409e-02  3.3512641717218697e-02  3.3445797120927857e-02  3.4969577763749350e-02  3.1015244243492210e-02  3.2351262632279297e-02  2.6620052560365724e-02  2.7134502125653735e-02  2.1796172643279019e-02  2.1900428972055509e-02  1.7315307698457946e-02  1.7242006716313457e-02  1.3493179057245437e-02  1.3359232901474371e-02  1.0378444777984589e-02  1.0243331156521342e-02  7.9028917466345446e-03  7.7897961931279918e-03  5.9638749797987674e-03  5.8771337440225533e-03  4.4601166434797635e-03  4.3965519148744256e-03  3.3036979345678064e-03  3.2582283433377477e-03  2.4219515002374364e-03  2.3898649353261761e-03  1.7559106003156159e-03  1.7334656796944388e-03  1.2580354413213159e-03  1.2424128625094992e-03  8.9012672621955800e-04  8.7929066106431930e-04  6.2162628808927814e-04  6.1414796739743570e-04  4.2826131263478577e-04  4.2312137316045457e-04  2.9093877160603707e-04  2.8742290050338677e-04  1.9482388404761463e-04  1.9243254212692319e-04  1.2855331779130767e-04  1.2693902541501125e-04  8.3558868393952858e-05  8.2476530518142994e-05  5.3486994013572092e-05  5.2767551154394928e-05  3.3708267142555638e-05  3.3235071142924847e-05  2.0909820352950947e-05  2.0601599055207578e-05  1.2763974936197187e-05  1.2565668950772323e-05  7.6655472372925447e-06  7.5395238366373076e-06  4.5281775091357537e-06  4.4491324460950799e-06  2.6304439865736661e-06  2.5815445977195283e-06  1.5023195449161080e-06  1.4725036245949258e-06  8.4338301446552248e-07  8.2547533412210157e-07  4.6528301480331299e-07  4.5469441993602058e-07  2.5219587316669138e-07  2.4603539687706167e-07  1.3427135829275640e-07  1.3074639990982015e-07  7.0201560332790736e-08  6.8218817029240565e-08  3.6034438262478931e-08  3.4938551117283807e-08  1.8154390535070481e-08  1.7559445281979162e-08  8.9746757885310914e-09  8.6575492858786281e-09  4.3521453614140865e-09  4.1862367237723846e-09  2.0696797601479404e-09  1.9845203563562889e-09  9.6488934713069798e-10  9.2201835507597302e-10  4.4083567786184631e-10  4.1967634260501087e-10  1.9730616796195036e-10  1.8707101415115150e-10  8.6476201994000523e-11  8.1625802654323698e-11  3.7098592850436435e-11  3.4847550257410330e-11  1.5571091715338615e-11  1.4548418182179197e-11  6.3908358912672583e-12  5.9362090533511171e-12  2.5634535919721007e-12  2.3657858041310387e-12  1.0042608777949341e-12  9.2024391507258276e-13  3.8398202617243487e-13  3.4909085754457994e-13  1.4317488046729438e-13  1.2902584829954401e-13  5.2012884563154909e-14  4.6413854473394326e-14  1.8389741758601609e-14  1.6229225341724464e-14  6.3199110358085307e-15  5.5076379017227429e-15  2.1079442326522609e-15  1.8106928521076420e-15  6.8112156390273632e-16  5.7535711229673941e-16  2.1276542422777670e-16  1.7622536778773628e-16  6.4291129714526707e-17  5.2030327415197293e-17  1.9789010288235067e-17  1.5580435091005078e-17  1.0913050371179958e-17  7.8672066278673407e-18  3.4646858043289729e-02  3.3006707376113151e-02  3.7939838784653367e-02  3.5719005390147163e-02  2.8339401601408912e-02  2.1992377518758210e-02  1.6875029123793742e-02  1.2872782452258874e-02  9.8029156191153290e-03  7.4430270560745214e-03  5.6211222478642891e-03  4.2137012487255803e-03  3.1300032108211796e-03  2.3009772783742321e-03  1.6723402449355866e-03  1.2006646069202254e-03  8.5097057836037407e-04  5.9505597280122514e-04  4.1034199672669282e-04  2.7893472484727427e-04  1.8683723319980186e-04  1.2328181153753977e-04  8.0108561692204141e-05  5.1249084538990280e-05  3.2270443671436315e-05  1.9995837973402393e-05  1.2189547752290558e-05  7.3087365207684888e-06  4.3092659353244460e-06  2.4978657854958706e-06  1.4231073583810185e-06  7.9671929670459011e-07  4.3819364996423466e-07  2.3670692271432195e-07  1.2555311519045394e-07  6.5373066463927476e-08  3.3404367114806879e-08  1.6746075953200230e-08  8.2336781787785717e-09  3.9692034454441913e-09  1.8753830562466334e-09  8.6814417961009205e-10  3.9358141134862165e-10  1.7467436913563158e-10  7.5852487217184396e-11  3.2212968211681334e-11  1.3370956581037559e-11  5.4210942536337809e-12  2.1453199414036563e-12  8.2798726992243393e-13  3.1136910903104756e-13  1.1396628350337932e-13  4.0548189203592383e-14  1.4002214889267326e-14  4.6842829443057731e-15  1.5146173169848212e-15  4.7194288965898747e-16  1.4118514677115010e-16  4.0474669067276582e-17  1.1623128625787337e-17  5.5410828681645551e-18  3.1580838401247598e-02  3.0138528316275913e-02  3.5250084250333005e-02  3.4296321475277926e-02  2.7820623472078553e-02  2.1433136099234678e-02  1.5848127515637120e-02  1.1862024836521774e-02  9.0059703973677952e-03  6.8612865070889623e-03  5.2093150639710940e-03  3.9262538691230107e-03  2.9310524100161707e-03  2.1641332422405678e-03  1.5787389738507812e-03  1.1370399616494368e-03  8.0800177966230046e-04  5.6624062034604469e-04  3.9116794355889431e-04  2.6627598512353224e-04  1.7855853421627660e-04  1.1791566524243091e-04  7.6664435995775653e-05  4.9061944500458371e-05  3.0896663348291827e-05  1.9142447960962291e-05  1.1665788828307591e-05  6.9912159948251535e-06  4.1192056746583897e-06  2.3855922132573080e-06  1.3576820125496457e-06  7.5912597780659280e-07  4.1690317342432185e-07  2.2482779270999156e-07  1.1902597974778023e-07  6.1842753138948870e-08  3.1525612706174891e-08  1.5762731601198410e-08  7.7276989318891954e-09  3.7133680220113664e-09  1.7483267969297652e-09  8.0619371063181779e-10  3.6393950764296490e-10  1.6076291059185888e-10  6.9451768907670834e-11  2.9327285067323856e-11  1.2096878476720948e-11  4.8705174177869421e-12  1.9125942100200116e-12  7.3182984395801758e-13  2.7256187685868647e-13  9.8680818719966609e-14  3.4677590066109600e-14  1.1806035611114662e-14  3.8849831514524409e-15  1.2320014951159517e-15  3.7502419911469549e-16  1.0900103227557109e-16  3.0094557328373195e-17  8.1679440066760046e-18  3.6414644300687355e-18  2.5923473635316444e-02  2.5320783367025132e-02  2.7379995385992846e-02  2.7263088730782387e-02  2.4953590794718136e-02  2.0439132016356668e-02  1.3439234038445675e-02  1.0124981429312729e-02  7.8456003157502674e-03  6.0820127078273483e-03  4.6797352299883851e-03  3.5638135975460221e-03  2.6824264844098962e-03  1.9938063056034682e-03  1.4624930535627272e-03  1.0581074527148124e-03  7.5474799066188928e-04  5.3057766459836220e-04  3.6747475612368478e-04  2.5067364581358135e-04  1.6837808293836031e-04  1.1133930376749929e-04  7.2460230603435267e-05  4.6402880642543704e-05  2.9234088777883657e-05  1.8115123533094390e-05  1.1038702982526006e-05  6.6132508217462454e-06  3.8943491854591640e-06  2.2536150457088714e-06  1.2812875710141523e-06  7.1553288026701615e-07  3.9239054233596221e-07  2.1125085838939680e-07  1.1162181086244429e-07  5.7868690842551257e-08  2.9427173417083472e-08  1.4673101013160434e-08  7.1715421771836002e-09  3.4344606576597491e-09  1.6109626529048689e-09  7.3978314527710318e-10  3.3243713440022054e-10  1.4610828959307370e-10  6.2769806229426658e-11  2.6342642334107797e-11  1.0791658501213917e-11  4.3120434456173259e-12  1.6789511546602638e-12  6.3632903172991240e-13  2.3445503659340102e-13  8.3851020899331128e-14  2.9054926621204136e-14  9.7316434880972587e-15  3.1413520621726149e-15  9.7341982959236281e-16  2.8798562854266928e-16  8.0704454205163223e-17  2.1193913554731608e-17  5.3034278132499612e-18  2.1279396296510724e-18  2.0403704064544257e-02  2.0233294190485387e-02  2.0684965152816578e-02  2.0401052486342171e-02  1.9623526762377667e-02  7.8164471291801811e-03  8.9340851225691298e-03  6.5055531050215469e-03  5.2243679357618627e-03  4.1047386658541506e-03  3.1711171836537005e-03  2.4127293937329305e-03  1.8086633211552138e-03  1.3358635305774054e-03  9.7199636793957641e-04  6.9658846521076514e-04  4.9159883408089018e-04  3.4157644440103963e-04  2.3362429891418912e-04  1.5726344557625326e-04  1.0416768517399209e-04  6.7882372937706444e-05  4.3512797410525719e-05  2.7430965614425336e-05  1.7003684645481258e-05  1.0362114431357331e-05  6.2066625997475029e-06  3.6532455256861978e-06  2.1125904542063595e-06  1.1999565032545845e-06  6.6930367297293748e-07  3.6650234650101426e-07  1.9697380993799086e-07  1.0387093432428412e-07  5.3728112842582179e-08  2.7251527975158439e-08  1.3549148190760577e-08  6.6009153633740317e-09  3.1498793660833744e-09  1.4716115769826580e-09  6.7281686023133484e-10  3.0087061176794077e-10  1.3152036352966216e-10  5.6164162886032221e-11  2.3413542680563704e-11  9.5205756044930117e-12  3.7726148844707317e-12  1.4552411281233787e-12  5.4574243486370849e-13  1.9867336965898559e-13  7.0078576926003383e-14  2.3895758557677910e-14  7.8534577356325316e-15  2.4780102852872224e-15  7.4661078843484925e-16  2.1310516139225500e-16  5.6907462141267572e-17  1.3914746195358030e-17  3.0494817236708701e-18  9.8330719774527733e-19  1.5744161659536227e-02  1.5772954854311291e-02  1.5523764919323543e-02  1.4748126712311316e-02  1.2632981736454231e-02  6.4862905829154351e-03  7.2404113406231698e-03  5.4710611096968637e-03  4.4732489180314625e-03  3.5727249849235210e-03  2.7979649900114908e-03  2.1526464210044373e-03  1.6284996639964273e-03  1.2119060505217127e-03  8.8733482825337012e-04  6.3924232174945026e-04  4.5308860354154333e-04  3.1595341317330547e-04  2.1674310990174245e-04  1.4625112899059248e-04  9.7060825367993416e-05  6.3346351730389361e-05  4.0651177637412952e-05  2.5646713309018248e-05  1.5904769444882194e-05  9.6938142284791146e-06  5.8055273741676627e-06  3.4156942011750485e-06  1.9738530819302567e-06  1.1200785190214949e-06  6.2398413634553642e-07  3.4117474570049491e-07  1.8303658147864325e-07  9.6322555645897386e-08  4.9706096156209048e-08  2.5144058472290132e-08  1.2463683221345611e-08  6.0516125522742801e-09  2.8768890468045178e-09  1.3384397629491286e-09  6.0908038407579533e-10  2.7095868412665190e-10  1.1776290945875280e-10  4.9966757958974607e-11  2.0680908677288830e-11  8.3420169991548087e-12  3.2758066265459634e-12  1.2507243085528537e-12  4.6360090201543998e-13  1.6652004028287961e-13  5.7827225293166492e-14  1.9358315786557778e-14  6.2228082264002046e-15  1.9105683103247718e-15  5.5590951651097193e-16  1.5141859143858729e-16  3.7784078309531834e-17  8.2481522222959334e-18  1.3738810888058353e-18  1.7297175114272351e-19  1.2222829128480859e-02  1.2332432448601724e-02  1.1839649321777763e-02  1.1040489956426390e-02  9.5992940258591859e-03  8.6278790590620068e-03  7.6379389051726282e-03  6.4829767228399325e-03  5.5625054262190372e-03  4.6934527512585223e-03  3.8758086006628529e-03  3.1322899478915213e-03  2.4807225592538532e-03  1.9276231355245083e-03  1.4707958810623609e-03  1.1025231329737967e-03  8.1220675237552982e-04  5.8813738128441352e-04  4.1867059470608299e-04  2.9299792592546935e-04  2.0158851681626309e-04  1.3635280933423238e-04  9.0664857760206408e-05  5.9259658159274052e-05  3.8070162321723018e-05  2.4036363845106609e-05  1.4912240103384791e-05  9.0898316244604549e-06  5.4427827292865099e-06  3.2007820186025107e-06  1.8482910045966616e-06  1.0477663782733390e-06  5.8295050056401073e-07  3.1824159562956813e-07  1.7041834533988970e-07  8.9490396992754401e-08  4.6067356866062885e-08  2.3238674427569320e-08  1.1483172619747365e-08  5.5559871346898103e-09  2.6309246712684655e-09  1.2186595221720280e-09  5.5187211279369547e-10  2.4417645581699146e-10  1.0548040260181530e-10  4.4452344476835245e-11  1.8258872595260357e-11  7.3020965444908723e-12  2.8396997472109768e-12  1.0722599167819433e-12  3.9241156589416236e-13  1.3887269132027989e-13  4.7388465800273696e-14  1.5533017600023550e-14  4.8650961921324338e-15  1.4450261773295540e-15  4.0220677681840931e-16  1.0277153820297879e-16  2.3113167939640081e-17  4.0592058386628472e-18  2.0465997299415771e-19  -3.5574454565763182e-19  9.8552561309324833e-03  9.9832736737491459e-03  9.4708881021367073e-03  8.8096837693729842e-03  7.8484563971766147e-03  6.7043680188823042e-03  5.7493331134194870e-03  4.9145328918714067e-03  4.1523009148970351e-03  3.4479744267266110e-03  2.8079778517810885e-03  2.2420102537762045e-03  1.7556248885586025e-03  1.3488707975625675e-03  1.0172615104416165e-03  7.5329062403072043e-04  5.4787000109167254e-04  3.9143678160598767e-04  2.7477366303208564e-04  1.8952154481781185e-04  1.2844680790495195e-04  8.5542323459162411e-05  5.5977888202919643e-05  3.5991462678494335e-05  2.2735351664243703e-05  1.4108118421204296e-05  8.5990008933238435e-06  5.1470979501051835e-06  3.0250527897441792e-06  1.7452999825993832e-06  9.8826900048331564e-07  5.4908571828735935e-07  2.9925897197738197e-07  1.5994407659908065e-07  8.3803844714289997e-08  4.3031184905214571e-08  2.1645200115345903e-08  1.0661518757550651e-08  5.1399472453069227e-09  2.4241713899952095e-09  1.1178734000989449e-09  5.0370752822379773e-10  2.2162537491047366e-10  9.5142420777220928e-11  3.9815439418796693e-11  1.6225515167769732e-11  6.4310748564808058e-12  2.4755583429203339e-12  9.2384347259199304e-13  3.3350759815128408e-13  1.1613990707964521e-13  3.8871413168941019e-14  1.2441394848458875e-14  3.7805053775433195e-15  1.0784640497729205e-15  2.8335685834701658e-16  6.6020358347903442e-17  1.2367608742934783e-17  1.1240716291658988e-18  -5.5451024052122033e-19  -6.6478447545505109e-19  8.5219294099206661e-03  8.6518245297193923e-03  8.1721926875377854e-03  7.6208064414751246e-03  6.8943682661934185e-03  6.0660221209924694e-03  5.2656943837743305e-03  4.5197287837281958e-03  3.8283012329654617e-03  3.1899875353711832e-03  2.6096085903414947e-03  2.0939683476650845e-03  1.6477059547038899e-03  1.2716537534763846e-03  9.6283981588334933e-04  7.1543506724000008e-04  5.2183750942090957e-04  3.7373143733209743e-04  2.6285580492404250e-04  1.8158027530233397e-04  1.2321123696433772e-04  8.2127064943437274e-05  5.3773551268129691e-05  3.4584918037745087e-05  2.1847959349505248e-05  1.3555108978295228e-05  8.2585296524533280e-06  4.9401702477905849e-06  2.9009607672327083e-06  1.6719101768711614e-06  9.4548565221867758e-07  5.2451382372711984e-07  2.8536256729112247e-07  1.5220945683405558e-07  7.9569183954024701e-08  4.0751844299725411e-08  2.0439677488508232e-08  1.0035370010905588e-08  4.8207414264416861e-09  2.2645454807492368e-09  1.0396179767119964e-09  4.6612104955951388e-10  2.0395002705576056e-10  8.7010036468437577e-11  3.6157365408673511e-11  1.4618154487042763e-11  5.7417804431576376e-12  2.1873651980140006e-12  8.0650346801352232e-13  2.8704438301889536e-13  9.8275604595724943e-14  3.2214863879623692e-14  1.0043239339355298e-14  2.9476433103908917e-15  8.0073023566091817e-16  1.9490708522571606e-16  3.9329513850995752e-17  4.8292755530526028e-18  -8.2762269626984924e-19  -1.0083567301252455e-18  -8.1299727797223311e-19  8.1012689042143770e-03  8.2656920389612577e-03  7.7604468107992869e-03  7.2461278771298746e-03  6.5876698005507385e-03  5.8425220734917597e-03  5.0943632512100512e-03  4.3821433251862796e-03  3.7166371942584744e-03  3.1011482462683410e-03  2.5409297139637448e-03  2.0422666971233899e-03  1.6096278749654644e-03  1.2440791786097003e-03  9.4314372546924503e-04  7.0151939966876374e-04  5.1210188059004950e-04  3.6697429409954154e-04  2.5820465807154311e-04  1.7840494219205916e-04  1.2106177712335420e-04  8.0684097189756082e-05  5.2814535406586971e-05  3.3954012856682008e-05  2.1437407957985910e-05  1.3290884549008482e-05  8.0905690510161560e-06  4.8348008355837485e-06  2.8357720337089739e-06  1.6321666565208001e-06  9.2162436748593971e-07  5.1041556007113565e-07  2.7717029694458430e-07  1.4753056562134270e-07  7.6944217216439454e-08  3.9306085098291125e-08  1.9658385802842745e-08  9.6213404080319385e-09  4.6057081258391888e-09  2.1551529666923907e-09  9.8513995820275821e-10  4.3957865465051449e-10  1.9130668323529857e-10  8.1125879172327107e-11  3.3483879679749782e-11  1.3433261136156461e-11  5.2300030406918992e-12  1.9721763677953911e-12  7.1852862148946222e-13  2.5212510770659358e-13  8.4842394708598996e-14  2.7217194619117669e-14  8.2499614640208495e-15  2.3292286752750320e-15  5.9675692675212123e-16  1.3100080525257005e-16  2.0508712469091820e-17  -2.9080316484688219e-19  -2.0727672880474421e-18  -1.2586227605474619e-18  -8.3533600725609875e-19  </DataArray> 
</PointData> 
</Piece>
</UnstructuredGrid>
</VTKFile>