<?xml version="1.0"?>
<VTKFile type="UnstructuredGrid"  version="0.1"  >
<UnstructuredGrid>
<Piece  NumberOfPoints="670" NumberOfCells="1192">
<Points>
<DataArray  type="Float64"  NumberOfComponents="3"  format="ascii">0 0 0  0.04 -1.31357e-10 0  0.0400579 0.0400582 0  0 0.04 0  0.08 -2.62713e-10 0  0.080123 0.0401093 0  0.12 -3.9407e-10 0  0.120183 0.040127 0  0.16 -5.25427e-10 0  0.160176 0.0400597 0  0.2 -6.56784e-10 0  0.199997 0.0399142 0  0.24 -7.8814e-10 0  0.239816 0.0400642 0  0.28 -9.19497e-10 0  0.279804 0.0401377 0  0.32 -1.05085e-09 0  0.319855 0.0401297 0  0.36 -1.18221e-09 0  0.359906 0.0400945 0  0.4 -1.31357e-09 0  0.399941 0.0400609 0  0.44 -1.44492e-09 0  0.439962 0.0400367 0  0.48 -1.57628e-09 0  0.479975 0.0400214 0  0.52 -1.70764e-09 0  0.519983 0.0400122 0  0.5600000000000001 -1.83899e-09 0  0.559987 0.0400069 0  0.6 -1.97035e-09 0  0.59999 0.040004 0  0.64 -2.10171e-09 0  0.639993 0.0400023 0  0.68 -2.23306e-09 0  0.679994 0.0400013 0  0.72 -2.36442e-09 0  0.7199950000000001 0.0400008 0  0.76 -2.49578e-09 0  0.759996 0.0400005 0  0.8 -2.62713e-09 0  0.799997 0.0400002 0  0.84 -2.75849e-09 0  0.839997 0.0400001 0  0.88 -2.88985e-09 0  0.8799979999999999 0.04 0  0.92 -3.0212e-09 0  0.919999 0.0399999 0  0.96 -3.15256e-09 0  0.959999 0.0399998 0  1 -3.28392e-09 0  1 0.0399998 0  1.04 -3.41527e-09 0  1.04 0.0399998 0  1.08 -3.54663e-09 0  1.08 0.0399998 0  1.12 -3.67799e-09 0  1.12 0.0399998 0  1.16 -3.80934e-09 0  1.16 0.0399999 0  1.2 -3.9407e-09 0  1.2 0.04 0  1.24 -4.07206e-09 0  1.24 0.04 0  1.28 -4.20341e-09 0  1.28 0.0400001 0  1.32 -4.33477e-09 0  1.32 0.0400001 0  1.36 -4.46613e-09 0  1.36 0.04 0  1.4 -4.59748e-09 0  1.4 0.04 0  1.44 -4.72884e-09 0  1.44 0.04 0  1.48 -4.8602e-09 0  1.48 0.04 0  1.52 -4.99156e-09 0  1.52 0.04 0  1.56 -5.12291e-09 0  1.56 0.04 0  1.6 -5.25427e-09 0  1.6 0.0400001 0  1.64 -5.38563e-09 0  1.64 0.0400001 0  1.68 -5.51698e-09 0  1.68 0.04 0  1.72 -5.64834e-09 0  1.72 0.04 0  1.76 -5.7797e-09 0  1.76 0.04 0  1.8 -5.91105e-09 0  1.8 0.04 0  1.84 -6.04241e-09 0  1.84 0.04 0  1.88 -6.17377e-09 0  1.88 0.0400001 0  1.92 -6.30512e-09 0  1.92 0.0400001 0  1.96 -6.43648e-09 0  1.96 0.0400001 0  2 -6.56784e-09 0  2 0.0400001 0  2.04 -6.69919e-09 0  2.04 0.0400001 0  2.08 -6.83055e-09 0  2.08 0.04 0  2.12 -6.96191e-09 0  2.12 0.04 0  2.16 -7.09326e-09 0  2.16 0.0400001 0  2.2 -7.22462e-09 0  2.2 0.04 0  2.24 -7.35598e-09 0  2.24 0.04 0  2.28 -7.48733e-09 0  2.28 0.0399999 0  2.32 -7.618690000000001e-09 0  2.32 0.04 0  2.36 -7.750049999999999e-09 0  2.36 0.04 0  2.4 -7.8814e-09 0  2.4 0.04 0  0.0401088 0.0801235 0  0 0.08 0  0.0802509 0.0802518 0  0.120434 0.0803392 0  0.160522 0.0801977 0  0.199995 0.0795328 0  0.239464 0.0802049 0  0.279544 0.08035689999999999 0  0.319711 0.0802867 0  0.359828 0.08018740000000001 0  0.399896 0.0801123 0  0.439933 0.0800646 0  0.479955 0.0800365 0  0.519968 0.08002049999999999 0  0.559976 0.0800116 0  0.599982 0.0800066 0  0.6399860000000001 0.0800039 0  0.679989 0.0800023 0  0.719991 0.0800014 0  0.759992 0.0800008 0  0.799994 0.0800004 0  0.839995 0.08000019999999999 0  0.879996 0.0799999 0  0.919997 0.07999970000000001 0  0.959999 0.0799996 0  1 0.0799995 0  1.04 0.0799995 0  1.08 0.0799996 0  1.12 0.07999970000000001 0  1.16 0.0799998 0  1.2 0.08 0  1.24 0.0800001 0  1.28 0.0800001 0  1.32 0.0800001 0  1.36 0.08 0  1.4 0.0799999 0  1.44 0.0799999 0  1.48 0.0799999 0  1.52 0.0799999 0  1.56 0.08 0  1.6 0.0800001 0  1.64 0.0800001 0  1.68 0.08 0  1.72 0.0799999 0  1.76 0.0799999 0  1.8 0.0799999 0  1.84 0.0799999 0  1.88 0.08 0  1.92 0.0800001 0  1.96 0.0800001 0  2 0.0800001 0  2.04 0.08 0  2.08 0.0799999 0  2.12 0.0799999 0  2.16 0.08 0  2.2 0.08 0  2.24 0.0799999 0  2.28 0.0799998 0  2.32 0.0799999 0  2.36 0.0799999 0  2.4 0.08 0  0.0401262 0.120184 0  0 0.12 0  0.0803378 0.120435 0  0.120779 0.12078 0  0.161485 0.120859 0  0.199996 0.117814 0  0.238503 0.120866 0  0.279195 0.120798 0  0.319616 0.120473 0  0.359799 0.120256 0  0.39988 0.120136 0  0.439921 0.120073 0  0.479944 0.120039 0  0.519958 0.120022 0  0.5599690000000001 0.120012 0  0.599976 0.120007 0  0.639981 0.120004 0  0.679985 0.120002 0  0.719987 0.120002 0  0.7599900000000001 0.120001 0  0.799991 0.12 0  0.839993 0.12 0  0.879995 0.12 0  0.919996 0.12 0  0.959998 0.119999 0  1 0.119999 0  1.04 0.119999 0  1.08 0.119999 0  1.12 0.12 0  1.16 0.12 0  1.2 0.12 0  1.24 0.12 0  1.28 0.12 0  1.32 0.12 0  1.36 0.12 0  1.4 0.12 0  1.44 0.12 0  1.48 0.12 0  1.52 0.12 0  1.56 0.12 0  1.6 0.12 0  1.64 0.12 0  1.68 0.12 0  1.72 0.12 0  1.76 0.12 0  1.8 0.12 0  1.84 0.12 0  1.88 0.12 0  1.92 0.12 0  1.96 0.12 0  2 0.12 0  2.04 0.12 0  2.08 0.12 0  2.12 0.12 0  2.16 0.12 0  2.2 0.12 0  2.24 0.12 0  2.28 0.12 0  2.32 0.12 0  2.36 0.12 0  2.4 0.12 0  0.0400582 0.160177 0  0 0.16 0  0.0801954 0.160525 0  0.120857 0.161488 0  0.164645 0.164645 0  0.2 0.15 0  0.235355 0.164645 0  0.279119 0.161498 0  0.319759 0.16055 0  0.359874 0.160228 0  0.399906 0.160104 0  0.439925 0.160051 0  0.479941 0.160027 0  0.519954 0.160014 0  0.559964 0.160008 0  0.5999719999999999 0.160005 0  0.639978 0.160003 0  0.679982 0.160002 0  0.719985 0.160001 0  0.759988 0.160001 0  0.79999 0.16 0  0.839992 0.16 0  0.8799940000000001 0.16 0  0.919996 0.159999 0  0.959998 0.159999 0  1 0.159999 0  1.04 0.159999 0  1.08 0.159999 0  1.12 0.16 0  1.16 0.16 0  1.2 0.16 0  1.24 0.16 0  1.28 0.16 0  1.32 0.16 0  1.36 0.16 0  1.4 0.16 0  1.44 0.16 0  1.48 0.16 0  1.52 0.16 0  1.56 0.16 0  1.6 0.16 0  1.64 0.16 0  1.68 0.16 0  1.72 0.16 0  1.76 0.16 0  1.8 0.16 0  1.84 0.16 0  1.88 0.16 0  1.92 0.16 0  1.96 0.16 0  2 0.16 0  2.04 0.16 0  2.08 0.16 0  2.12 0.16 0  2.16 0.16 0  2.2 0.16 0  2.24 0.16 0  2.28 0.16 0  2.32 0.16 0  2.36 0.16 0  2.4 0.16 0  0.0399111 0.2 0  0 0.2 0  0.0795281 0.2 0  0.117811 0.2 0  0.15 0.2 0  0.282167 0.2 0  0.25 0.2 0  0.320429 0.2 0  0.36003 0.200001 0  0.399944 0.200001 0  0.439934 0.200001 0  0.479942 0.200001 0  0.519953 0.200001 0  0.559963 0.200001 0  0.59997 0.200001 0  0.639976 0.200001 0  0.6799809999999999 0.200001 0  0.719984 0.200001 0  0.759987 0.200001 0  0.799989 0.2 0  0.839991 0.2 0  0.879993 0.2 0  0.919996 0.199999 0  0.959998 0.199999 0  1 0.199999 0  1.04 0.199999 0  1.08 0.199999 0  1.12 0.2 0  1.16 0.2 0  1.2 0.2 0  1.24 0.2 0  1.28 0.2 0  1.32 0.2 0  1.36 0.2 0  1.4 0.2 0  1.44 0.2 0  1.48 0.2 0  1.52 0.2 0  1.56 0.2 0  1.6 0.2 0  1.64 0.2 0  1.68 0.2 0  1.72 0.2 0  1.76 0.2 0  1.8 0.2 0  1.84 0.2 0  1.88 0.2 0  1.92 0.2 0  1.96 0.2 0  2 0.2 0  2.04 0.2 0  2.08 0.2 0  2.12 0.2 0  2.16 0.2 0  2.2 0.2 0  2.24 0.2 0  2.28 0.2 0  2.32 0.2 0  2.36 0.2 0  2.4 0.2 0  0.0400582 0.239823 0  0 0.24 0  0.0801953 0.239475 0  0.120857 0.238513 0  0.164645 0.235355 0  0.279119 0.238502 0  0.235355 0.235355 0  0.319759 0.239451 0  0.359873 0.239774 0  0.399905 0.239898 0  0.439925 0.239951 0  0.479941 0.239976 0  0.519954 0.239988 0  0.559964 0.239994 0  0.5999719999999999 0.239997 0  0.639977 0.239999 0  0.679982 0.24 0  0.719985 0.24 0  0.759987 0.24 0  0.79999 0.24 0  0.839992 0.24 0  0.8799940000000001 0.24 0  0.919996 0.239999 0  0.959998 0.239999 0  1 0.239999 0  1.04 0.239999 0  1.08 0.239999 0  1.12 0.24 0  1.16 0.24 0  1.2 0.24 0  1.24 0.24 0  1.28 0.24 0  1.32 0.24 0  1.36 0.24 0  1.4 0.24 0  1.44 0.24 0  1.48 0.24 0  1.52 0.24 0  1.56 0.24 0  1.6 0.24 0  1.64 0.24 0  1.68 0.24 0  1.72 0.24 0  1.76 0.24 0  1.8 0.24 0  1.84 0.24 0  1.88 0.24 0  1.92 0.24 0  1.96 0.24 0  2 0.24 0  2.04 0.24 0  2.08 0.24 0  2.12 0.24 0  2.16 0.24 0  2.2 0.24 0  2.24 0.24 0  2.28 0.24 0  2.32 0.24 0  2.36 0.24 0  2.4 0.24 0  0.0401261 0.279816 0  0 0.28 0  0.0803376 0.279565 0  0.120778 0.27922 0  0.161485 0.279141 0  0.2 0.25 0  0.199996 0.282186 0  0.238503 0.279135 0  0.279195 0.279202 0  0.319616 0.279528 0  0.359799 0.279745 0  0.39988 0.279865 0  0.43992 0.279929 0  0.479944 0.279962 0  0.519958 0.27998 0  0.559968 0.27999 0  0.599976 0.279995 0  0.639981 0.279998 0  0.679984 0.279999 0  0.719987 0.28 0  0.759989 0.28 0  0.799991 0.28 0  0.839993 0.28 0  0.879995 0.28 0  0.919997 0.279999 0  0.959998 0.279999 0  1 0.279999 0  1.04 0.279999 0  1.08 0.28 0  1.12 0.28 0  1.16 0.28 0  1.2 0.28 0  1.24 0.28 0  1.28 0.28 0  1.32 0.28 0  1.36 0.28 0  1.4 0.28 0  1.44 0.28 0  1.48 0.28 0  1.52 0.28 0  1.56 0.28 0  1.6 0.28 0  1.64 0.28 0  1.68 0.28 0  1.72 0.28 0  1.76 0.28 0  1.8 0.28 0  1.84 0.28 0  1.88 0.28 0  1.92 0.28 0  1.96 0.28 0  2 0.28 0  2.04 0.28 0  2.08 0.28 0  2.12 0.28 0  2.16 0.28 0  2.2 0.28 0  2.24 0.28 0  2.28 0.28 0  2.32 0.28 0  2.36 0.28 0  2.4 0.28 0  0.0401086 0.319877 0  0 0.32 0  0.08025060000000001 0.319748 0  0.120433 0.319661 0  0.160522 0.319802 0  0.199995 0.320467 0  0.239464 0.319795 0  0.279543 0.319643 0  0.31971 0.319714 0  0.359828 0.319813 0  0.399895 0.319889 0  0.439933 0.319937 0  0.479955 0.319965 0  0.519968 0.319981 0  0.559976 0.31999 0  0.599982 0.319995 0  0.6399860000000001 0.319998 0  0.679989 0.319999 0  0.719991 0.32 0  0.759992 0.32 0  0.799994 0.32 0  0.839995 0.32 0  0.879996 0.32 0  0.919998 0.32 0  0.959999 0.32 0  1 0.32 0  1.04 0.32 0  1.08 0.32 0  1.12 0.32 0  1.16 0.32 0  1.2 0.32 0  1.24 0.32 0  1.28 0.32 0  1.32 0.32 0  1.36 0.32 0  1.4 0.32 0  1.44 0.32 0  1.48 0.32 0  1.52 0.32 0  1.56 0.32 0  1.6 0.32 0  1.64 0.32 0  1.68 0.32 0  1.72 0.32 0  1.76 0.32 0  1.8 0.32 0  1.84 0.32 0  1.88 0.32 0  1.92 0.32 0  1.96 0.32 0  2 0.32 0  2.04 0.32 0  2.08 0.32 0  2.12 0.32 0  2.16 0.32 0  2.2 0.32 0  2.24 0.32 0  2.28 0.32 0  2.32 0.32 0  2.36 0.32 0  2.4 0.32 0  0.0400579 0.359942 0  0 0.36 0  0.0801229 0.359891 0  0.120183 0.359873 0  0.160175 0.35994 0  0.199997 0.360086 0  0.239816 0.359936 0  0.279804 0.359862 0  0.319855 0.359871 0  0.359906 0.359906 0  0.399941 0.35994 0  0.439962 0.359964 0  0.479975 0.359979 0  0.5199820000000001 0.359989 0  0.559987 0.359994 0  0.59999 0.359997 0  0.639993 0.359998 0  0.679994 0.359999 0  0.7199950000000001 0.36 0  0.759996 0.36 0  0.799997 0.36 0  0.839997 0.36 0  0.8799979999999999 0.36 0  0
[...]
<PointData  Scalars="f_10391-0"> 
<DataArray  type="Float64"  Name="f_10391-0"  format="ascii">-1.4880632546432956e-04  1.8232562889622085e-04  9.3906838375595468e-04  1.8232877061011000e-04  6.9274860587271233e-04  2.1432215840163412e-03  6.4834499388116489e-04  1.7983105061198897e-03  2.3008969782416564e-04  5.8932816660194173e-04  4.2732524459733871e-05  1.0979438577860851e-04  3.9093982653537245e-06  1.0740464641058527e-05  9.5736825013130803e-08  3.1364190993984641e-07  -6.8512166485439314e-09  -1.6176858660746431e-08  -8.2993524181451213e-11  6.0711126423898922e-10  7.3464838389538271e-12  9.6404731024138263e-11  -6.8774362964309799e-13  -4.9090128437508907e-12  5.3455145991293427e-14  4.9039885600316845e-14  -1.5331312503620981e-15  -7.1643084338947078e-16  2.2102100621944257e-17  -3.3633985255355427e-16  -2.4222823051146234e-18  5.9191954795399198e-17  3.0704040398720401e-20  -3.8173336684809681e-18  1.8908511807210411e-20  1.8249096821283177e-19  -1.5530093742533825e-21  -1.4103955394361171e-20  4.6432765743870495e-23  1.2203129164751862e-21  -9.4537080990117971e-25  -7.4814473194435935e-23  1.8601853675755586e-25  3.5413264974199918e-24  -1.8177600180141194e-26  -2.1444716484909499e-25  1.3609034812092815e-28  1.9229895642837930e-26  1.3708525989092225e-28  -1.5179106720042894e-27  -1.7261949551560428e-29  7.9963943420705260e-29  1.2492939689468507e-30  -1.7528861994301373e-30  -6.0961950012956758e-32  -1.2906030145042145e-31  1.8083743337450591e-33  1.7216798715893603e-32  -2.7552815250943556e-38  -1.0746608679788388e-33  -3.5611249389246503e-36  4.0209991229329160e-35  2.1803075527218774e-37  -3.9536656274253944e-37  -5.3779022988394598e-39  -6.9458779900375160e-38  -2.2315393955726483e-40  6.3399752886594972e-39  3.4424060196612452e-41  -3.2840378286411857e-40  -2.3370592350269079e-42  1.1156860347554096e-41  1.1255097321686022e-43  -1.6117067992496413e-43  -4.0783145473387381e-45  -9.4441048982960532e-45  1.0192649193958022e-46  9.3864557737141167e-46  -7.6219029885087466e-49  -4.7327060615842623e-47  -8.5444225199654864e-50  1.5987949569063359e-48  5.6561941896907715e-51  -2.9462505224774931e-50  -1.9379434949660885e-52  -5.3140995240688695e-52  2.6360914091324784e-54  7.4803240337165618e-53  1.4921115958574636e-55  -3.7222486052650734e-54  -1.3596200321192163e-56  1.1452036079366196e-55  6.2515684944090835e-58  -1.4452804789420808e-57  -1.8661511823613919e-59  -8.1197206808482607e-59  2.4236331127410406e-61  7.1082797200857113e-60  1.1765731282815654e-62  -3.1883538618915307e-61  -1.0567491706929353e-63  9.4140579830209813e-63  4.7853220067809591e-65  -1.2982679694851350e-64  -1.4554377349161463e-66  -4.9188498451890230e-66  2.3734844703315239e-68  4.6432750271849260e-67  4.7609228982971838e-70  -2.1008258827347474e-68  -5.7972376723818709e-71  6.3771997509979447e-70  2.7792263843570078e-72  -1.0733815943755551e-71  -8.9580411443969270e-74  -1.6484212528273559e-73  1.8102250206516463e-75  2.2224352430133505e-74  -3.7468157352418191e-78  -1.0806011715238723e-75  -5.4318536563534509e-78  6.6301779138377351e-77  2.1432485705376947e-03  6.9277754891671265e-04  5.6264565107867820e-03  5.3267773276505191e-03  1.8097415741671538e-03  3.3572262398428346e-04  3.8555354125676333e-05  1.9123009468259636e-06  -1.6345524518844903e-08  -1.5721762097784871e-09  8.9613016403308746e-11  -1.9464233430110419e-11  6.6486479643052401e-13  6.8222467406410842e-14  -5.5258308585070002e-15  2.4388042443484911e-16  -1.7871613640210198e-17  1.1762538818410713e-18  -3.9443704839739402e-20  1.0048188985818698e-21  -1.3314201061804709e-22  1.3750048530936832e-23  -7.1035052597467008e-25  2.5357156188500128e-26  -2.5041493408490100e-27  3.6540832434291221e-28  -3.4792246699875529e-29  2.1216880438970861e-30  -7.0513605660919882e-32  -1.1699927035011215e-33  3.5542728182351252e-34  -2.9184049264781144e-35  1.6079402920971279e-36  -6.4974641525801127e-38  1.7838409019910391e-39  -1.5745480741490317e-41  -1.5029681804207070e-42  9.6467852970248177e-44  -2.3030749674605407e-45  -7.6620540546285714e-47  1.1374889775500928e-47  -7.0402137883602520e-49  3.0177293648628886e-50  -9.2070188426357727e-52  1.4963905176644385e-53  3.5468816507277373e-55  -4.1441253576897986e-56  1.9683569332152632e-57  -5.9742618608482894e-59  8.4795063783923350e-61  3.0805606291656498e-62  -2.9469479761270043e-63  1.3183152535657561e-64  -3.8364824197746568e-66  5.2780862673237449e-68  1.8127208804786579e-69  -1.6857886739739636e-70  7.2708340793798147e-72  -2.0084798956252344e-73  2.5891723434757698e-75  2.4551750957437193e-76  1.7983620470212577e-03  6.4840071337207770e-04  5.3268183295775593e-03  5.6510660328361407e-03  2.2400453228915893e-03  3.8949023797900075e-04  3.1907527382470205e-05  -2.5876161082514189e-06  -6.9776399462896130e-07  -3.9620331736770218e-08  2.5817211247741895e-10  1.3912839214830839e-11  -8.9730163419420962e-14  6.8579895533038649e-14  -2.4388581746516408e-14  1.6441926965480051e-15  -2.2938360314817830e-17  -1.2634165524321052e-18  5.8625410317609316e-20  -9.8963356173802968e-21  1.4293869473234550e-21  -1.0175718523250741e-22  4.3871311353848694e-24  -2.0555917371113941e-25  1.8187931834110842e-26  -1.3248135045503465e-27  2.5759641337623361e-29  6.2875216890328886e-30  -9.0803523974641050e-31  7.2479659557929889e-32  -4.0618822853308151e-33  1.6059956026736214e-34  -3.4553701525178062e-36  -7.7576349815856622e-38  1.2268666148306555e-38  -6.9449341889373501e-40  2.3987965238418829e-41  -3.3274027731113661e-43  -2.0469191551431596e-44  1.8668176866843345e-45  -8.1492999791101231e-47  1.8101782201656627e-48  3.5536418516092248e-50  -6.0347012084067437e-51  3.6303069493577960e-52  -1.4968755285138192e-53  4.3895258737680049e-55  -6.8596759136605407e-57  -1.5643381223939280e-58  1.7562924818303597e-59  -7.9973640289013664e-61  2.3107532178558195e-62  -2.9959217582682167e-64  -1.1862361172256922e-65  1.0208089758396396e-66  -4.1318681191284052e-68  9.9308333741321677e-70  -2.2760137965967167e-72  -1.1817520874558466e-72  7.1998746620459348e-74  -5.3754361957232617e-75  5.8934251640965871e-04  2.3012315017542428e-04  1.8096315285193859e-03  2.2399381923730913e-03  1.1778356238995133e-03  3.0798020870202421e-04  -1.4479901902165896e-05  -7.7825180437254820e-06  -6.5958062299356119e-07  7.8319698347669364e-08  1.5336580196061610e-08  4.2835625222986898e-10  -2.4632499973081583e-11  1.4300145186248295e-13  7.8395417087554442e-15  2.3225219364299403e-15  -1.6452015553682173e-16  -1.3482003709390302e-17  2.1313027200066269e-18  -1.2348761499737106e-19  6.3774714407650596e-21  -5.4213380512442803e-22  4.4332578090074305e-23  -2.5515544537620541e-24  1.3014872354522556e-25  -1.0602288265995847e-26  1.1224154861377931e-27  -9.6207209539573251e-29  5.9580095213362008e-30  -2.4630137325740202e-31  4.0698488167853849e-33  3.0815551154196270e-34  -3.2346294646133025e-35  1.5607330766838422e-36  -3.1104043443402676e-38  -1.8092046424368836e-39  2.3087345861499632e-40  -1.4408973823127524e-41  6.3346599093418714e-43  -1.9824217131232331e-44  3.3073369644861181e-46  7.3341334595495782e-48  -8.4294119448744054e-49  3.5256799191215473e-50  -6.4200069495055879e-52  -2.4023394572935817e-53  2.8325304288570347e-54  -1.5257522541113829e-55  5.7077422182212964e-57  -1.4670081462966309e-58  1.4954806367611785e-60  8.8890219181575689e-62  -6.4834287706560461e-63  2.3790249545243772e-64  -4.7246580597848283e-66  -4.6655239683885192e-68  8.8029630474628784e-69  -4.3915685395629866e-70  1.3849234740313508e-71  -2.3691871044600072e-73  -4.5562326276309249e-75  1.0977221029481618e-04  4.2740860548384892e-05  3.3561027608076640e-04  3.8939379475513950e-04  3.0798490582570700e-04  -1.7734778722846296e-06  -4.9018951543006836e-06  6.7754449542390009e-07  2.2023829696425453e-07  9.0478523839522729e-09  -2.8197083473910995e-09  -2.4274370724676864e-10  6.1281983855188063e-12  4.0661646013028846e-13  -2.3296417620434622e-14  3.5400859599738861e-16  3.7989388408994720e-18  4.2223467274158939e-18  -6.1580882304936337e-19  3.5447232331532296e-20  -1.0887708327230283e-21  6.6000229597334250e-23  -8.5908967610162724e-24  6.3879403701095585e-25  -2.0382644193722509e-26  -2.9155357750572371e-28  2.2190640544605752e-29  5.2532258418378044e-30  -7.9985426212278785e-31  5.6160593066409715e-32  -1.9775232177698367e-33  -3.4816141315159199e-35  1.0518956302136980e-35  -8.6164488381661926e-37  4.6435087084505295e-38  -1.7424470127963661e-39  3.4697761533536625e-41  9.3450766277044765e-43  -1.3497678551191230e-43  7.9430279105037437e-45  -3.2334333403713648e-46  9.3353787748426746e-48  -1.4677272630839520e-49  -2.2712531559069175e-51  2.3569790779761224e-52  -5.9497048608049848e-54  -1.7426071017020100e-55  2.5617130040305811e-56  -1.4905083538152622e-57  5.8610300075615084e-59  -1.5600579818083774e-60  1.5781686472395242e-62  1.0665588925420524e-63  -7.9599701267877775e-65  3.1061939554026637e-66  -7.4024045131088600e-68  3.4647409661363292e-70  6.2854396873847454e-71  -3.7448416970313552e-72  1.4350998952757104e-73  1.0726720557597757e-05  3.9099808418402331e-06  3.8496332337576769e-05  3.1857118542965378e-05  -1.4463785256414233e-05  7.7454177711749921e-08  -9.6073509019155585e-07  4.3611146524236786e-07  2.6570502954510348e-08  -2.9637312407128328e-08  -4.7396118266064308e-09  2.5356444870645038e-10  7.3409754709902230e-11  2.2279435081898073e-14  -2.5853335280380687e-13  8.5941527176631097e-15  1.1233270288991016e-16  -1.7864622549496306e-17  6.6467811513547155e-20  9.4798906410767674e-20  -5.1789934413981590e-21  -3.2340037747795651e-22  6.2445852136543205e-23  -4.4156281775037570e-24  2.0220709905866342e-25  -8.7039713702065528e-27  4.6273123464109982e-28  -1.3506672414111329e-29  -1.9208923574437552e-30  3.6710320818925547e-31  -3.5152952415137058e-32  2.3364182220565716e-33  -1.1301556738853475e-34  3.6125938940169605e-36  -2.4942879093854740e-38  -5.9019418505746270e-39  4.7809200460475057e-40  -2.1942098414670080e-41  5.8750296871038970e-43  2.0449996574233138e-45  -1.2829716820208515e-45  8.6442535342105187e-47  -3.7438707096767488e-48  1.1317008449498749e-49  -1.9319715599680315e-51  -1.8830248720874548e-53  2.3754731794152272e-54  -4.0110852869532634e-56  -4.2425849924784103e-57  4.3439064328832453e-58  -2.4121210594055353e-59  9.5543092785653955e-61  -2.6864747578978779e-62  3.7967289917846339e-64  1.0814020169660023e-65  -1.0143969165753666e-66  3.9152366783776650e-68  -6.9765552464462656e-70  -1.6221159752390541e-71  4.9307131869705895e-72  3.1132022426221120e-07  9.5760825824508733e-08  1.9014044277004302e-06  -2.5904265877186441e-06  -7.7693808654594095e-06  -4.8983648288319400e-06  -1.7704530307968885e-06  7.7682039438730393e-08  2.1807920750652235e-07  6.8356024428327688e-08  -4.9031135058686827e-08  -1.6812114248456666e-08  2.0212019628996978e-09  1.0460204645802681e-09  2.4352070532978471e-11  -1.6065350688806043e-11  -5.3294189896225692e-13  9.1544149949740717e-14  -1.2206862079737455e-15  -1.9584427493612871e-16  1.4070850101837707e-17  -6.1045862045855186e-19  1.9562346848101167e-20  -3.5201182985520485e-22  1.6694897350260169e-23  -2.0415697180996155e-24  5.3815802625442043e-26  5.1326492784029592e-28  1.5528842973987962e-27  -3.4004864793793571e-28  3.6896979219900292e-29  -2.5392769917432344e-30  1.0697471474375523e-31  -9.1057167569916887e-34  -2.6974437774227587e-34  2.5968578945477918e-35  -1.4033658211444597e-36  4.5258391529563895e-38  -1.1201504073163493e-40  -9.4864537269808533e-41  7.1753355282049033e-42  -3.1337202425762155e-43  7.2779990539810040e-45  1.3463158605794658e-46  -2.4911757389465398e-47  1.5485394278544522e-48  -6.4689096907256479e-50  1.8482971152748913e-51  -2.2820027606573020e-53  -1.0959076472193678e-54  8.7548524193761088e-56  -3.0582796902484606e-57  2.7891178414600545e-59  3.9372041314821631e-60  -3.1906841452821760e-61  1.4796005510004557e-62  -4.6384877811065234e-64  7.2798117283027361e-66  2.2635072908245087e-67  -2.4836801517155970e-68  1.2535274163598178e-69  -8.6133833327258624e-71  -1.6273756210704143e-08  -6.8391699967538005e-09  -1.6643477676747715e-08  -6.9449664171855507e-07  -6.5475451035399424e-07  6.7798126501659488e-07  4.3571766834342686e-07  6.8307891043986070e-08  -2.1786340731369182e-08  -1.9395786415961951e-08  2.1656966995669137e-09  3.2357192827654850e-09  1.7214353112762052e-10  -1.6549308482186209e-10  -1.6864510893491743e-11  2.7339075578735512e-12  2.4603020203985266e-13  -2.4092503353336942e-14  -4.9680709867899208e-16  1.3042657105051042e-16  -5.4391498940373575e-18  -1.0200610948067276e-19  2.3693574577412151e-20  -1.0977289722558489e-21  -3.6262865535726269e-23  9.7701030422450875e-24  -8.2599515278600634e-25  4.3643793545372408e-26  -1.7717217273942856e-27  9.6179272843865430e-29  -8.9623529225686556e-30  7.7637008798250591e-31  -4.7249555636143075e-32  1.6180106515773037e-33  2.3161576126594484e-35  -7.8678388280011707e-36  6.4145608630096456e-37  -3.3234906212832088e-38  1.0879512397972112e-39  -6.4199677094831769e-42  -1.9905643533441605e-42  1.6440088555885977e-43  -7.9950522314024555e-45  2.4850020738891073e-46  -2.0632164373888585e-48  -3.3547161385448973e-49  2.7999152027745415e-50  -1.3835801041106240e-51  4.8756600324831118e-53  -1.1142539192448666e-54  2.3511901522619574e-57  1.2463341751039788e-57  -6.8382773237772965e-59  1.8489388968884435e-60  8.3513479912340459e-63  -4.0632607815582076e-63  2.6935766843622976e-64  -1.1845657278236183e-65  3.8389266342825627e-67  -8.7452913329615583e-69  5.4655472965974896e-71  5.9049625192140968e-10  -1.0542712162205982e-10  -1.5854364531065305e-09  -4.0189717992132004e-08  7.7646723582562680e-08  2.1961847687965095e-07  2.4684355358092170e-08  -4.8595746136937731e-08  -1.8467037878339806e-08  -2.0578258688192494e-10  3.2123620263949145e-09  4.6387120099863452e-10  -4.2571930854201428e-10  -8.5166428877980845e-11  1.9241008846755192e-11  4.0781164247108587e-12  -3.4449363687691808e-13  -5.6871455923087795e-14  4.2739027086257094e-15  1.2620407111019952e-16  -2.4561881654230129e-17  1.4077685845816654e-18  -7.4687589164660251e-20  3.8981059887663431e-21  -5.0643417012886702e-23  -1.1604399863494004e-23  9.3468455918916920e-25  -3.4619729446660759e-26  1.8679548089547082e-27  -2.0486148520536133e-28  8.3476427303312964e-30  1.3586808742737757e-30  -2.7707851517035410e-31  2.7337658065021031e-32  -1.8055469453264634e-33  8.0285041464069218e-35  -1.6042545859483816e-36  -9.8918466014954773e-38  1.3135126500285705e-38  -8.4888581157439795e-40  3.7293713796364035e-41  -1.0150221316497163e-42  -1.9716868626780133e-45  2.1933232875924279e-45  -1.5438922291198537e-46  6.8138040079174919e-48  -1.9318606692333364e-49  1.1464564718922032e-51  2.6054239884201185e-52  -1.9734783562373317e-53  9.0003618869326714e-55  -2.8380849775291881e-56  4.7780826570829090e-58  1.0841647285682916e-59  -1.3313995984674558e-60  6.5427589090638666e-62  -2.0968776125640340e-63  3.6105092945369633e-65  6.7206909348714574e-67  -8.6787343997997413e-68  8.1423979666857094e-69  1.9492515722820342e-10  1.9016093767710336e-11  1.8271522367368955e-10  5.6229833597604214e-10  3.0402091641473704e-08  1.7937488111716202e-08  -5.9421029947111391e-08  -3.3505762389248207e-08  4.4185183967550781e-09  6.5639497572059250e-09  1.3758643877285467e-09  -8.0431401921693387e-10  -3.4832744936857617e-10  8.1293409683250547e-11  4.2076168367857677e-11  -2.7419421178177862e-12  -1.9271638444220431e-12  4.4629333533802903e-14  3.4898480025235166e-14  -1.5078955464743975e-15  -2.3111519952079966e-16  2.4598426912501980e-17  -4.7935584944423891e-19  -7.0090931365295251e-20  7.0147156337534498e-21  -3.5042815011257757e-22  1.1276544769529639e-23  -1.3576017791796302e-25  -1.3730109787820952e-26  6.6476950477526863e-28  1.0519704374436499e-28  -1.9648668458109252e-29  1.6182670191606626e-30  -6.6152596062047781e-32  -1.3384146602390730e-33  4.6139593689005144e-34  -4.2737378278884466e-35  2.5816747826441624e-36  -1.0729907332052370e-37  2.2700158835089696e-39  8.1836947815370876e-41  -1.1967104477539579e-41  7.5380742228633581e-43  -3.2121753138994630e-44  8.7204137986484578e-46  -1.8873259623463720e-48  -1.4403340359518594e-48  1.0104234480926169e-49  -4.2673911003284983e-51  1.0913698140430899e-52  1.7819998373794213e-55  -2.0786836405900008e-55  1.4227441699042958e-56  -6.4151460391613164e-58  2.1479480847398637e-59  -4.9638659663760523e-61  3.5999696823673503e-63  3.3620026191538242e-64  -2.0154226847520520e-65  5.7109194508283915e-67  -1.5313021364339441e-69  </DataArray> 
</PointData> 
</Piece>
</UnstructuredGrid>
</VTKFile>