<?xml version="1.0"?>
<VTKFile type="UnstructuredGrid"  version="0.1"  >
<UnstructuredGrid>
<Piece  NumberOfPoints="670" NumberOfCells="1192">
<Points>
<DataArray  type="Float64"  NumberOfComponents="3"  format="ascii">0 0 0  0.04 -1.31357e-10 0  0.0400579 0.0400582 0  0 0.04 0  0.08 -2.62713e-10 0  0.080123 0.0401093 0  0.12 -3.9407e-10 0  0.120183 0.040127 0  0.16 -5.25427e-10 0  0.160176 0.0400597 0  0.2 -6.56784e-10 0  0.199997 0.0399142 0  0.24 -7.8814e-10 0  0.239816 0.0400642 0  0.28 -9.19497e-10 0  0.279804 0.0401377 0  0.32 -1.05085e-09 0  0.319855 0.0401297 0  0.36 -1.18221e-09 0  0.359906 0.0400945 0  0.4 -1.31357e-09 0  0.399941 0.0400609 0  0.44 -1.44492e-09 0  0.439962 0.0400367 0  0.48 -1.57628e-09 0  0.479975 0.0400214 0  0.52 -1.70764e-09 0  0.519983 0.0400122 0  0.5600000000000001 -1.83899e-09 0  0.559987 0.0400069 0  0.6 -1.97035e-09 0  0.59999 0.040004 0  0.64 -2.10171e-09 0  0.639993 0.0400023 0  0.68 -2.23306e-09 0  0.679994 0.0400013 0  0.72 -2.36442e-09 0  0.7199950000000001 0.0400008 0  0.76 -2.49578e-09 0  0.759996 0.0400005 0  0.8 -2.62713e-09 0  0.799997 0.0400002 0  0.84 -2.75849e-09 0  0.839997 0.0400001 0  0.88 -2.88985e-09 0  0.8799979999999999 0.04 0  0.92 -3.0212e-09 0  0.919999 0.0399999 0  0.96 -3.15256e-09 0  0.959999 0.0399998 0  1 -3.28392e-09 0  1 0.0399998 0  1.04 -3.41527e-09 0  1.04 0.0399998 0  1.08 -3.54663e-09 0  1.08 0.0399998 0  1.12 -3.67799e-09 0  1.12 0.0399998 0  1.16 -3.80934e-09 0  1.16 0.0399999 0  1.2 -3.9407e-09 0  1.2 0.04 0  1.24 -4.07206e-09 0  1.24 0.04 0  1.28 -4.20341e-09 0  1.28 0.0400001 0  1.32 -4.33477e-09 0  1.32 0.0400001 0  1.36 -4.46613e-09 0  1.36 0.04 0  1.4 -4.59748e-09 0  1.4 0.04 0  1.44 -4.72884e-09 0  1.44 0.04 0  1.48 -4.8602e-09 0  1.48 0.04 0  1.52 -4.99156e-09 0  1.52 0.04 0  1.56 -5.12291e-09 0  1.56 0.04 0  1.6 -5.25427e-09 0  1.6 0.0400001 0  1.64 -5.38563e-09 0  1.64 0.0400001 0  1.68 -5.51698e-09 0  1.68 0.04 0  1.72 -5.64834e-09 0  1.72 0.04 0  1.76 -5.7797e-09 0  1.76 0.04 0  1.8 -5.91105e-09 0  1.8 0.04 0  1.84 -6.04241e-09 0  1.84 0.04 0  1.88 -6.17377e-09 0  1.88 0.0400001 0  1.92 -6.30512e-09 0  1.92 0.0400001 0  1.96 -6.43648e-09 0  1.96 0.0400001 0  2 -6.56784e-09 0  2 0.0400001 0  2.04 -6.69919e-09 0  2.04 0.0400001 0  2.08 -6.83055e-09 0  2.08 0.04 0  2.12 -6.96191e-09 0  2.12 0.04 0  2.16 -7.09326e-09 0  2.16 0.0400001 0  2.2 -7.22462e-09 0  2.2 0.04 0  2.24 -7.35598e-09 0  2.24 0.04 0  2.28 -7.48733e-09 0  2.28 0.0399999 0  2.32 -7.618690000000001e-09 0  2.32 0.04 0  2.36 -7.750049999999999e-09 0  2.36 0.04 0  2.4 -7.8814e-09 0  2.4 0.04 0  0.0401088 0.0801235 0  0 0.08 0  0.0802509 0.0802518 0  0.120434 0.0803392 0  0.160522 0.0801977 0  0.199995 0.0795328 0  0.239464 0.0802049 0  0.279544 0.08035689999999999 0  0.319711 0.0802867 0  0.359828 0.08018740000000001 0  0.399896 0.0801123 0  0.439933 0.0800646 0  0.479955 0.0800365 0  0.519968 0.08002049999999999 0  0.559976 0.0800116 0  0.599982 0.0800066 0  0.6399860000000001 0.0800039 0  0.679989 0.0800023 0  0.719991 0.0800014 0  0.759992 0.0800008 0  0.799994 0.0800004 0  0.839995 0.08000019999999999 0  0.879996 0.0799999 0  0.919997 0.07999970000000001 0  0.959999 0.0799996 0  1 0.0799995 0  1.04 0.0799995 0  1.08 0.0799996 0  1.12 0.07999970000000001 0  1.16 0.0799998 0  1.2 0.08 0  1.24 0.0800001 0  1.28 0.0800001 0  1.32 0.0800001 0  1.36 0.08 0  1.4 0.0799999 0  1.44 0.0799999 0  1.48 0.0799999 0  1.52 0.0799999 0  1.56 0.08 0  1.6 0.0800001 0  1.64 0.0800001 0  1.68 0.08 0  1.72 0.0799999 0  1.76 0.0799999 0  1.8 0.0799999 0  1.84 0.0799999 0  1.88 0.08 0  1.92 0.0800001 0  1.96 0.0800001 0  2 0.0800001 0  2.04 0.08 0  2.08 0.0799999 0  2.12 0.0799999 0  2.16 0.08 0  2.2 0.08 0  2.24 0.0799999 0  2.28 0.0799998 0  2.32 0.0799999 0  2.36 0.0799999 0  2.4 0.08 0  0.0401262 0.120184 0  0 0.12 0  0.0803378 0.120435 0  0.120779 0.12078 0  0.161485 0.120859 0  0.199996 0.117814 0  0.238503 0.120866 0  0.279195 0.120798 0  0.319616 0.120473 0  0.359799 0.120256 0  0.39988 0.120136 0  0.439921 0.120073 0  0.479944 0.120039 0  0.519958 0.120022 0  0.5599690000000001 0.120012 0  0.599976 0.120007 0  0.639981 0.120004 0  0.679985 0.120002 0  0.719987 0.120002 0  0.7599900000000001 0.120001 0  0.799991 0.12 0  0.839993 0.12 0  0.879995 0.12 0  0.919996 0.12 0  0.959998 0.119999 0  1 0.119999 0  1.04 0.119999 0  1.08 0.119999 0  1.12 0.12 0  1.16 0.12 0  1.2 0.12 0  1.24 0.12 0  1.28 0.12 0  1.32 0.12 0  1.36 0.12 0  1.4 0.12 0  1.44 0.12 0  1.48 0.12 0  1.52 0.12 0  1.56 0.12 0  1.6 0.12 0  1.64 0.12 0  1.68 0.12 0  1.72 0.12 0  1.76 0.12 0  1.8 0.12 0  1.84 0.12 0  1.88 0.12 0  1.92 0.12 0  1.96 0.12 0  2 0.12 0  2.04 0.12 0  2.08 0.12 0  2.12 0.12 0  2.16 0.12 0  2.2 0.12 0  2.24 0.12 0  2.28 0.12 0  2.32 0.12 0  2.36 0.12 0  2.4 0.12 0  0.0400582 0.160177 0  0 0.16 0  0.0801954 0.160525 0  0.120857 0.161488 0  0.164645 0.164645 0  0.2 0.15 0  0.235355 0.164645 0  0.279119 0.161498 0  0.319759 0.16055 0  0.359874 0.160228 0  0.399906 0.160104 0  0.439925 0.160051 0  0.479941 0.160027 0  0.519954 0.160014 0  0.559964 0.160008 0  0.5999719999999999 0.160005 0  0.639978 0.160003 0  0.679982 0.160002 0  0.719985 0.160001 0  0.759988 0.160001 0  0.79999 0.16 0  0.839992 0.16 0  0.8799940000000001 0.16 0  0.919996 0.159999 0  0.959998 0.159999 0  1 0.159999 0  1.04 0.159999 0  1.08 0.159999 0  1.12 0.16 0  1.16 0.16 0  1.2 0.16 0  1.24 0.16 0  1.28 0.16 0  1.32 0.16 0  1.36 0.16 0  1.4 0.16 0  1.44 0.16 0  1.48 0.16 0  1.52 0.16 0  1.56 0.16 0  1.6 0.16 0  1.64 0.16 0  1.68 0.16 0  1.72 0.16 0  1.76 0.16 0  1.8 0.16 0  1.84 0.16 0  1.88 0.16 0  1.92 0.16 0  1.96 0.16 0  2 0.16 0  2.04 0.16 0  2.08 0.16 0  2.12 0.16 0  2.16 0.16 0  2.2 0.16 0  2.24 0.16 0  2.28 0.16 0  2.32 0.16 0  2.36 0.16 0  2.4 0.16 0  0.0399111 0.2 0  0 0.2 0  0.0795281 0.2 0  0.117811 0.2 0  0.15 0.2 0  0.282167 0.2 0  0.25 0.2 0  0.320429 0.2 0  0.36003 0.200001 0  0.399944 0.200001 0  0.439934 0.200001 0  0.479942 0.200001 0  0.519953 0.200001 0  0.559963 0.200001 0  0.59997 0.200001 0  0.639976 0.200001 0  0.6799809999999999 0.200001 0  0.719984 0.200001 0  0.759987 0.200001 0  0.799989 0.2 0  0.839991 0.2 0  0.879993 0.2 0  0.919996 0.199999 0  0.959998 0.199999 0  1 0.199999 0  1.04 0.199999 0  1.08 0.199999 0  1.12 0.2 0  1.16 0.2 0  1.2 0.2 0  1.24 0.2 0  1.28 0.2 0  1.32 0.2 0  1.36 0.2 0  1.4 0.2 0  1.44 0.2 0  1.48 0.2 0  1.52 0.2 0  1.56 0.2 0  1.6 0.2 0  1.64 0.2 0  1.68 0.2 0  1.72 0.2 0  1.76 0.2 0  1.8 0.2 0  1.84 0.2 0  1.88 0.2 0  1.92 0.2 0  1.96 0.2 0  2 0.2 0  2.04 0.2 0  2.08 0.2 0  2.12 0.2 0  2.16 0.2 0  2.2 0.2 0  2.24 0.2 0  2.28 0.2 0  2.32 0.2 0  2.36 0.2 0  2.4 0.2 0  0.0400582 0.239823 0  0 0.24 0  0.0801953 0.239475 0  0.120857 0.238513 0  0.164645 0.235355 0  0.279119 0.238502 0  0.235355 0.235355 0  0.319759 0.239451 0  0.359873 0.239774 0  0.399905 0.239898 0  0.439925 0.239951 0  0.479941 0.239976 0  0.519954 0.239988 0  0.559964 0.239994 0  0.5999719999999999 0.239997 0  0.639977 0.239999 0  0.679982 0.24 0  0.719985 0.24 0  0.759987 0.24 0  0.79999 0.24 0  0.839992 0.24 0  0.8799940000000001 0.24 0  0.919996 0.239999 0  0.959998 0.239999 0  1 0.239999 0  1.04 0.239999 0  1.08 0.239999 0  1.12 0.24 0  1.16 0.24 0  1.2 0.24 0  1.24 0.24 0  1.28 0.24 0  1.32 0.24 0  1.36 0.24 0  1.4 0.24 0  1.44 0.24 0  1.48 0.24 0  1.52 0.24 0  1.56 0.24 0  1.6 0.24 0  1.64 0.24 0  1.68 0.24 0  1.72 0.24 0  1.76 0.24 0  1.8 0.24 0  1.84 0.24 0  1.88 0.24 0  1.92 0.24 0  1.96 0.24 0  2 0.24 0  2.04 0.24 0  2.08 0.24 0  2.12 0.24 0  2.16 0.24 0  2.2 0.24 0  2.24 0.24 0  2.28 0.24 0  2.32 0.24 0  2.36 0.24 0  2.4 0.24 0  0.0401261 0.279816 0  0 0.28 0  0.0803376 0.279565 0  0.120778 0.27922 0  0.161485 0.279141 0  0.2 0.25 0  0.199996 0.282186 0  0.238503 0.279135 0  0.279195 0.279202 0  0.319616 0.279528 0  0.359799 0.279745 0  0.39988 0.279865 0  0.43992 0.279929 0  0.479944 0.279962 0  0.519958 0.27998 0  0.559968 0.27999 0  0.599976 0.279995 0  0.639981 0.279998 0  0.679984 0.279999 0  0.719987 0.28 0  0.759989 0.28 0  0.799991 0.28 0  0.839993 0.28 0  0.879995 0.28 0  0.919997 0.279999 0  0.959998 0.279999 0  1 0.279999 0  1.04 0.279999 0  1.08 0.28 0  1.12 0.28 0  1.16 0.28 0  1.2 0.28 0  1.24 0.28 0  1.28 0.28 0  1.32 0.28 0  1.36 0.28 0  1.4 0.28 0  1.44 0.28 0  1.48 0.28 0  1.52 0.28 0  1.56 0.28 0  1.6 0.28 0  1.64 0.28 0  1.68 0.28 0  1.72 0.28 0  1.76 0.28 0  1.8 0.28 0  1.84 0.28 0  1.88 0.28 0  1.92 0.28 0  1.96 0.28 0  2 0.28 0  2.04 0.28 0  2.08 0.28 0  2.12 0.28 0  2.16 0.28 0  2.2 0.28 0  2.24 0.28 0  2.28 0.28 0  2.32 0.28 0  2.36 0.28 0  2.4 0.28 0  0.0401086 0.319877 0  0 0.32 0  0.08025060000000001 0.319748 0  0.120433 0.319661 0  0.160522 0.319802 0  0.199995 0.320467 0  0.239464 0.319795 0  0.279543 0.319643 0  0.31971 0.319714 0  0.359828 0.319813 0  0.399895 0.319889 0  0.439933 0.319937 0  0.479955 0.319965 0  0.519968 0.319981 0  0.559976 0.31999 0  0.599982 0.319995 0  0.6399860000000001 0.319998 0  0.679989 0.319999 0  0.719991 0.32 0  0.759992 0.32 0  0.799994 0.32 0  0.839995 0.32 0  0.879996 0.32 0  0.919998 0.32 0  0.959999 0.32 0  1 0.32 0  1.04 0.32 0  1.08 0.32 0  1.12 0.32 0  1.16 0.32 0  1.2 0.32 0  1.24 0.32 0  1.28 0.32 0  1.32 0.32 0  1.36 0.32 0  1.4 0.32 0  1.44 0.32 0  1.48 0.32 0  1.52 0.32 0  1.56 0.32 0  1.6 0.32 0  1.64 0.32 0  1.68 0.32 0  1.72 0.32 0  1.76 0.32 0  1.8 0.32 0  1.84 0.32 0  1.88 0.32 0  1.92 0.32 0  1.96 0.32 0  2 0.32 0  2.04 0.32 0  2.08 0.32 0  2.12 0.32 0  2.16 0.32 0  2.2 0.32 0  2.24 0.32 0  2.28 0.32 0  2.32 0.32 0  2.36 0.32 0  2.4 0.32 0  0.0400579 0.359942 0  0 0.36 0  0.0801229 0.359891 0  0.120183 0.359873 0  0.160175 0.35994 0  0.199997 0.360086 0  0.239816 0.359936 0  0.279804 0.359862 0  0.319855 0.359871 0  0.359906 0.359906 0  0.399941 0.35994 0  0.439962 0.359964 0  0.479975 0.359979 0  0.5199820000000001 0.359989 0  0.559987 0.359994 0  0.59999 0.359997 0  0.639993 0.359998 0  0.679994 0.359999 0  0.7199950000000001 0.36 0  0.759996 0.36 0  0.799997 0.36 0  0.839997 0.36 0  0.8799979999999999 0.36 0  0
[...]
<PointData  Scalars="f_10391-0"> 
<DataArray  type="Float64"  Name="f_10391-0"  format="ascii">3.5504808198296996e-02  3.5833532991141545e-02  3.6484888711305077e-02  3.5693437104905835e-02  3.5639187536802570e-02  3.7138310623444540e-02  3.3196652182250562e-02  3.4509881616760073e-02  2.8781177199988781e-02  2.9275988664542788e-02  2.3919081591914762e-02  2.4006693713215579e-02  1.9374586748945009e-02  1.9286141727256918e-02  1.5461942954810383e-02  1.5313991751302996e-02  1.2231864411656589e-02  1.2084107428137442e-02  9.6199027365341284e-03  9.4957477812764850e-03  7.5282710847788346e-03  7.4321116969188515e-03  5.8613031628971203e-03  5.7898774596449858e-03  4.5370295959412865e-03  4.4850887303661780e-03  3.4885876155769115e-03  3.4512262782694101e-03  2.6622154409296868e-03  2.6355055530414306e-03  2.0146315670022319e-03  1.9955769563667902e-03  1.5107477544268287e-03  1.4971582662900889e-03  1.1219179464552105e-03  1.1122422646053550e-03  8.2465766886216391e-04  8.1777006376241798e-04  5.9970366508322790e-04  5.9480336103523445e-04  4.3130834302273948e-04  4.2782577420702082e-04  3.0668325392440085e-04  3.0421547857546543e-04  2.1553959541231179e-04  2.1379369129757771e-04  1.4969198395906676e-04  1.4846110220037654e-04  1.0271094094799710e-04  1.0184808214118519e-04  6.9615187913932424e-05  6.9012884527280084e-05  4.6600383976525225e-05  4.6183096858902770e-05  3.0804083330008792e-05  3.0517070152012447e-05  2.0104784721214010e-05  1.9908963968735350e-05  1.2954026518686291e-05  1.2821598366334654e-05  8.2388797447237314e-06  8.1501729989146795e-06  5.1717151769885645e-06  5.1128984433043705e-06  3.2036857783507913e-06  3.1651055541861812e-06  1.9582139450667621e-06  1.9331925201189551e-06  1.1808948624849607e-06  1.1648575813394517e-06  7.0250413991587082e-07  6.9235009885168460e-07  4.1220963558140178e-07  4.0586122360419416e-07  2.3854109272104644e-07  2.3462317467759533e-07  1.3612167287178320e-07  1.3373567751998375e-07  7.6586520880489877e-08  7.5153086460075877e-08  4.2479464141792741e-08  4.1630151762530612e-08  2.3224492780308616e-08  2.2728328929962223e-08  1.2513852759555282e-08  1.2228130320306252e-08  6.6442903533670632e-09  6.4821340393399930e-09  3.4757754326543215e-09  3.3850977862776964e-09  1.7911443131930855e-09  1.7411921048429935e-09  9.0910187563205281e-10  8.8199932474107318e-10  4.5438283209512160e-10  4.3990225945100471e-10  2.2360380816100725e-10  2.1598665267935318e-10  1.0831811010083886e-10  1.0437400377041175e-10  5.1641613801771630e-11  4.9631743158433921e-11  2.4226055029030825e-11  2.3218273640441119e-11  1.1180248231823431e-11  1.0683141129164297e-11  5.0746032940928816e-12  4.8334296823183716e-12  2.2647810041853802e-12  2.1497247249966995e-12  9.9362832690610133e-13  9.3966917858991772e-13  4.2854967741193910e-13  4.0368295193048434e-13  1.8202087004072668e-13  1.7076658555496066e-13  7.7172893380051845e-14  7.2145475018599057e-14  3.5614276882798587e-14  3.3159170493243320e-14  2.5822667217997051e-14  2.3082912880713270e-14  3.6754185003034262e-02  3.5116947488309951e-02  4.0040480402457342e-02  3.7814206522735747e-02  3.0426623435460789e-02  2.4053084211020051e-02  1.8874917648809546e-02  1.4784902653400406e-02  1.1604616555673722e-02  9.1146305174650225e-03  7.1467491243577845e-03  5.5824301568811662e-03  4.3365452805503007e-03  3.3457537854422654e-03  2.5609822755535074e-03  1.9431123568758540e-03  1.4603535962347484e-03  1.0864940249788397e-03  7.9982091439476587e-04  5.8234116324144163e-04  4.1920461314517272e-04  2.9827783848322003e-04  2.0972606582683701e-04  1.4568950745534069e-04  9.9968572734974100e-05  6.7747571916047453e-05  4.5337025238817068e-05  2.9955409999810663e-05  1.9538981874153582e-05  1.2579867108782096e-05  7.9935965336785056e-06  5.0123997366153834e-06  3.1012147425985134e-06  1.8929790087870113e-06  1.1398093031650133e-06  6.7691606572359893e-07  3.9645732784314987e-07  2.2895949070355632e-07  1.3036516920294075e-07  7.3171789299722215e-08  4.0480101819617096e-08  2.2069374033097955e-08  1.1855537359050707e-08  6.2742952852988965e-09  3.2707548499010328e-09  1.6791676435794768e-09  8.4883508243033226e-10  4.2242724176112715e-10  2.0691487860023691e-10  9.9735470941784217e-11  4.7296286208221273e-11  2.2060693207124809e-11  1.0118456517320175e-11  4.5623961322439811e-12  2.0217617629497377e-12  8.8025676070024904e-13  3.7655704491018505e-13  1.5856603428811865e-13  6.6654408985846883e-14  3.0417695176045528e-14  2.0906752315243677e-14  3.3586812854729177e-02  3.2146636222710995e-02  3.7251600949549039e-02  3.6298070974899926e-02  2.9829667007011236e-02  2.3433990143958767e-02  1.7779532434653786e-02  1.3705141051644231e-02  1.0744720491859306e-02  8.4781336622955800e-03  6.6884768581900768e-03  5.2561570889903594e-03  4.1055504700432590e-03  3.1827512997145303e-03  2.4462469847602699e-03  1.8625980967425502e-03  1.4040309604908072e-03  1.0472341714254179e-03  7.7256901750502593e-04  5.6350082865569873e-04  4.0625311641293889e-04  2.8941744461903358e-04  2.0369917205802313e-04  1.4161643685930200e-04  9.7234174124499946e-05  6.5923969539284888e-05  4.4130174448361544e-05  2.9162912261698308e-05  1.9022786307409451e-05  1.2246505064221795e-05  7.7802207010113690e-06  4.8770860732897802e-06  3.0162289312649909e-06  1.8401341710260418e-06  1.1072889839951069e-06  6.5711674352464944e-07  3.8453560263321976e-07  2.2186250316380328e-07  1.2618962966321406e-07  7.0744541405288568e-08  3.9086493513544388e-08  2.1279312862503231e-08  1.1413413196284530e-08  6.0301419956288507e-09  3.1377433100478925e-09  1.6077016233561785e-09  8.1097585332871028e-10  4.0265829910799186e-10  1.9674269653700836e-10  9.4579109685533436e-11  4.4722039048026891e-11  2.0795338494689891e-11  9.5062391474585958e-12  4.2709216292006597e-12  1.8852506773268068e-12  8.1737851572946452e-13  3.4807053029010577e-13  1.4584173846163122e-13  6.0956153449678021e-14  2.7613271859939273e-14  1.8851337892066639e-14  2.7807423897743239e-02  2.7206131862096646e-02  2.9261205963982219e-02  2.9147721681631371e-02  2.6867088304496755e-02  2.2391775038181239e-02  1.5275794370671076e-02  1.1872472060040440e-02  9.5013132578849364e-03  7.6286221505077103e-03  6.1000281035668144e-03  4.8447524214949075e-03  3.8165402340989579e-03  2.9794349123745526e-03  2.3033345518676624e-03  1.7623391262292464e-03  1.3339112525729243e-03  9.9838675881357250e-04  7.3868668946668286e-04  5.4011778096094241e-04  3.9020026887290549e-04  2.7846321197323265e-04  1.9627090464260675e-04  1.3661148341578697e-04  9.3886242372110394e-05  6.3700975972974533e-05  4.2665521526845051e-05  2.8205695260060392e-05  1.8402463152421767e-05  1.1848034069998951e-05  7.5265881098001243e-06  4.7171687093571813e-06  2.9163849025398711e-06  1.7784263525529468e-06  1.0695484572463420e-06  6.3428262913789749e-07  3.7087310776411004e-07  2.1378068413055509e-07  1.2146479853002985e-07  6.8015387888754857e-08  3.7529440789350996e-08  2.0402144198345982e-08  1.0925616334671856e-08  5.7624448067839267e-09  2.9928086913813088e-09  1.5303089064283005e-09  7.7022813148420322e-10  3.8151088830930269e-10  1.8592741090714637e-10  8.9130067298208795e-11  4.2018230894235046e-11  1.9474419051619327e-11  8.8710709479738165e-12  3.9703989369978011e-12  1.7453865257160493e-12  7.5336624203064714e-13  3.1925697006785448e-13  1.3305424290043242e-13  5.5268624038857719e-14  2.4847127943735612e-14  1.6867424389870396e-14  2.2155763849228682e-02  2.1986749550315609e-02  2.2432957283693548e-02  2.2146369680376695e-02  2.1363387888726562e-02  9.4393966217869666e-03  1.0589019064596790e-02  8.0657021763364534e-03  6.6930858377372195e-03  5.4603302085239527e-03  4.3982640371484551e-03  3.5024037471064408e-03  2.7579149118054287e-03  2.1472405766356688e-03  1.6526342548640347e-03  1.2570756591994067e-03  9.4479686879935486e-04  7.0149618496651435e-04  5.1444716162503640e-04  3.7258415077118717e-04  2.6644920879170412e-04  1.8813128277119916e-04  1.3113372235734348e-04  9.0227368666901262e-05  6.1275650701126443e-05  4.1070612368114263e-05  2.7165557998622834e-05  1.7729962543518437e-05  1.1417115485838987e-05  7.2530249961125083e-06  4.5451645368926103e-06  2.8093070291717447e-06  1.7124480488375414e-06  1.0293225450757554e-06  6.1002335512491407e-07  3.5640598892664441e-07  2.0525193477003992e-07  1.1649595160596873e-07  6.5155414656210556e-08  3.5903611572936904e-08  1.9489574350217380e-08  1.0420015311709718e-08  5.4860222825202459e-09  2.8437229216267445e-09  1.4510094485253228e-09  7.2864194165717306e-10  3.6001547423404551e-10  1.7497947377317575e-10  8.3637456978176604e-11  3.9304586212062226e-11  1.8154583717103697e-11  8.2393285570111673e-12  3.6729101257266871e-12  1.6076124690731781e-12  6.9063152013201112e-13  2.9116819074941104e-13  1.2065791132737015e-13  4.9789543334525026e-14  2.2205056067816918e-14  1.4989101846799677e-14  1.7368983722373225e-02  1.7400126217399503e-02  1.7140980442470716e-02  1.6353007684294332e-02  1.4201314444387176e-02  8.0101297860819785e-03  8.7669546290109635e-03  6.9450980336448189e-03  5.8680211028855163e-03  4.8655404957551980e-03  3.9723614254697061e-03  3.1984673701236114e-03  2.5417060366522736e-03  1.9940038044765390e-03  1.5444697782018171e-03  1.1810964311573817e-03  8.9169319248149888e-04  6.6458451741716810e-04  4.8894377682964861e-04  3.5506547591274330e-04  2.5449524841882450e-04  1.8002982387870189e-04  1.2568344178737347e-04  8.6587165346445767e-05  5.8863203806093518e-05  3.9484682311829693e-05  2.6131723226783797e-05  1.7061884114628491e-05  1.0989290383102403e-05  6.9816132576686651e-06  4.3746445006558268e-06  2.7032430893484568e-06  1.6471549323228492e-06  9.8955425197514306e-07  5.8606594155697689e-07  3.4213543298033631e-07  1.9684949311860397e-07  1.1160717166386015e-07  6.2345497092110740e-08  3.4308637935502263e-08  1.8595754777551388e-08  9.9256444887045161e-09  5.2162278318471782e-09  2.6984913052698422e-09  1.3739176911319321e-09  6.8830124673848783e-10  3.3921197367674461e-10  1.6440997235692948e-10  7.8348587811456786e-11  3.6698890969047773e-11  1.6891024947953857e-11  7.6364465979316925e-12  3.3899774117970950e-12  1.4770570617065073e-12  6.3141620882606639e-13  2.6476686546172927e-13  1.0905991335643217e-13  4.4690390746487269e-14  1.9762115248409623e-14  1.3261475927364530e-14  1.3741649856864864e-02  1.3854461753440264e-02  1.3349793830204133e-02  1.2540508878167472e-02  1.1083518995538801e-02  1.0125206776871698e-02  9.0995369389933658e-03  7.9442964259705887e-03  7.0096414853464189e-03  6.0961979829674490e-03  5.2073868015583367e-03  4.3704246623222122e-03  3.6086322780737616e-03  2.9345094976258052e-03  2.3518438966445379e-03  1.8584066592259552e-03  1.4482460843511194e-03  1.1132296758115440e-03  8.4412930500738469e-04  6.3144478839715734e-04  4.6599833119581314e-04  3.3928343124232609e-04  2.4371081294071505e-04  1.7271124170042813e-04  1.2075252292532278e-04  8.3290523828071032e-05  5.6675787192973263e-05  3.8044953901295779e-05  2.5192014861846473e-05  1.6453902990065835e-05  1.0599475178046026e-05  6.7340127829933141e-06  4.2188958113153255e-06  2.6062514892175571e-06  1.5873774554507745e-06  9.5310469369245357e-07  5.6408448593490147e-07  3.2902885540311394e-07  1.8912533640011118e-07  1.0710934078639572e-07  5.9758428812946597e-08  3.2839275614968914e-08  1.7771938073824505e-08  9.4698404641697273e-09  4.9674353554974412e-09  2.5645625937163470e-09  1.3028367549356097e-09  6.5111857778746537e-10  3.2004737558519356e-10  1.5468042672225079e-10  7.3484756437299222e-11  3.4305500096495862e-11  1.5732114899224011e-11  7.0844538456119688e-12  3.1314507785574659e-12  1.3580418030055635e-12  5.7757932712366239e-13  2.4083687283002932e-13  9.8584792486704298e-14  4.0104523419519411e-14  1.7575818064564234e-14  1.1719548820263784e-14  1.1299749904419874e-02  1.1430924293595886e-02  1.0908012377105649e-02  1.0240733484386666e-02  9.2751318902586158e-03  8.1250443782007516e-03  7.1631537273917330e-03  6.3080821376983462e-03  5.5029117411725444e-03  4.7319271213067948e-03  4.0041579101773072e-03  3.3338566768067032e-03  2.7320974841676489e-03  2.2046768291335184e-03  1.7525002248903905e-03  1.3726743719456572e-03  1.0596984969337266e-03  8.0646503834796860e-04  6.0512278326064215e-04  4.4772305230452814e-04  3.2667547898013297e-04  2.3507236067943563e-04  1.6683322107010742e-04  1.1677994709054649e-04  8.0625365555097418e-05  5.4901879633021535e-05  3.6873236203909660e-05  2.4424443850902242e-05  1.5955383755106989e-05  1.0278574813306310e-05  6.5293587158748571e-06  4.0896318067158650e-06  2.5254189842118254e-06  1.5373521534917770e-06  9.2247566395048254e-07  5.4553797473485054e-07  3.1792628049174370e-07  1.8255683342098831e-07  1.0327014007481527e-07  5.7542277780095843e-08  3.1576296313499969e-08  1.7061563584294848e-08  9.0756282499715395e-09  4.7516694285660610e-09  2.4481218658769946e-09  1.2408989728977889e-09  6.1865516568090001e-10  3.0328720093918219e-10  1.4615992638797111e-10  6.9220851193252631e-11  3.2205806158622261e-11  1.4715033110862553e-11  6.6000062917057975e-12  2.9046411684901014e-12  1.2537074032959620e-12  5.3043975867501029e-13  2.1991923517879297e-13  8.9449982080874970e-14  3.6118933713018213e-14  1.5681650646114415e-14  1.0376436801036754e-14  9.9247362216274056e-03  1.0057362225950916e-02  9.5697349265250666e-03  9.0149336822714279e-03  8.2880082642593465e-03  7.4580520181884704e-03  6.6495413521059643e-03  5.8811790359204483e-03  5.1472054362175397e-03  4.4444909446495146e-03  3.7795440476017599e-03  3.1630934802020587e-03  2.6049269034049329e-03  2.1114317466904447e-03  1.6849313023594959e-03  1.3241830029932578e-03  1.0251679355468785e-03  7.8205459824030486e-04  5.8797591862151633e-04  4.3574998489502093e-04  3.1836854355207452e-04  2.2934469725447034e-04  1.6290745026900714e-04  1.1410766582260781e-04  7.8817984114562913e-05  5.3688669797590985e-05  3.6064580190350061e-05  2.3889665869235578e-05  1.5604637509889783e-05  1.0050523811114304e-05  6.3824316798515463e-06  3.9958728923774604e-06  2.4661844022259678e-06  1.5003179826068428e-06  8.9957173161076876e-07  5.3153188333073550e-07  3.0946089003307814e-07  1.7750174879350370e-07  1.0028891869156603e-07  5.5806548647011337e-08  3.0578978615965640e-08  1.6496242963716711e-08  8.7596077986120995e-09  4.5775100831504325e-09  2.3535321493111828e-09  1.1902859490513336e-09  5.9198301459095210e-10  2.8944876717576222e-10  1.3909344432826555e-10  6.5670602955142923e-11  3.0451516777934956e-11  1.3862770243171095e-11  6.1930836503176226e-12  2.7137683058385525e-12  1.1657868001810263e-12  4.9068631617103361e-13  2.0227859683928550e-13  8.1755633885006623e-14  3.2774723136994403e-14  1.4095838864089113e-14  9.1966301570783658e-15  9.4911768821544906e-03  9.6593748516482433e-03  9.1457284124076502e-03  8.6287688504738426e-03  7.9704960866541531e-03  7.2243861146555075e-03  6.4677449397819815e-03  5.7326446710470706e-03  5.0247584522396648e-03  4.3456458849484118e-03  3.7019738115692570e-03  3.1037217447125271e-03  2.5603710407327124e-03  2.0784677596227996e-03  1.6608057416679094e-03  1.3066606934338378e-03  1.0125216598554380e-03  7.7296300793564248e-04  5.8146621220687088e-04  4.3110591799136368e-04  3.1506752878902167e-04  2.2700542479261052e-04  1.6125800928060621e-04  1.1295028205729775e-04  7.8010328446519148e-05  5.3128053558560659e-05  3.5678121018276495e-05  2.3625318907337466e-05  1.5425350743337534e-05  9.9300465453353534e-06  6.3022743001928890e-06  3.9431034515584585e-06  2.4318316171082190e-06  1.4782154396176106e-06  8.8552410158633643e-07  5.2271648565283473e-07  3.0400114550165187e-07  1.7416578010144635e-07  9.8278758210409282e-08  5.4612426195037915e-08  2.9879885234849460e-08  1.6093010562747488e-08  8.5305312829384799e-09  4.4493698701104798e-09  2.2829739917723236e-09  1.1520524406031155e-09  5.7160067087391545e-10  2.7876182507888381e-10  1.3358390148326227e-10  6.2878640418956146e-11  2.9061247373304814e-11  1.3182721725456744e-11  5.8664359648513290e-12  2.5597564804828318e-12  1.0945368090233218e-12  4.5835890960026601e-13  1.8790146262433510e-13  7.5490840718103858e-14  3.0085207440362408e-14  1.2848917358091065e-14  7.9740405079002491e-15  </DataArray> 
</PointData> 
</Piece>
</UnstructuredGrid>
</VTKFile>