<?xml version="1.0"?>
<VTKFile type="UnstructuredGrid"  version="0.1"  >
<UnstructuredGrid>
<Piece  NumberOfPoints="670" NumberOfCells="1192">
<Points>
<DataArray  type="Float64"  NumberOfComponents="3"  format="ascii">0 0 0  0.04 -1.31357e-10 0  0.0400579 0.0400582 0  0 0.04 0  0.08 -2.62713e-10 0  0.080123 0.0401093 0  0.12 -3.9407e-10 0  0.120183 0.040127 0  0.16 -5.25427e-10 0  0.160176 0.0400597 0  0.2 -6.56784e-10 0  0.199997 0.0399142 0  0.24 -7.8814e-10 0  0.239816 0.0400642 0  0.28 -9.19497e-10 0  0.279804 0.0401377 0  0.32 -1.05085e-09 0  0.319855 0.0401297 0  0.36 -1.18221e-09 0  0.359906 0.0400945 0  0.4 -1.31357e-09 0  0.399941 0.0400609 0  0.44 -1.44492e-09 0  0.439962 0.0400367 0  0.48 -1.57628e-09 0  0.479975 0.0400214 0  0.52 -1.70764e-09 0  0.519983 0.0400122 0  0.5600000000000001 -1.83899e-09 0  0.559987 0.0400069 0  0.6 -1.97035e-09 0  0.59999 0.040004 0  0.64 -2.10171e-09 0  0.639993 0.0400023 0  0.68 -2.23306e-09 0  0.679994 0.0400013 0  0.72 -2.36442e-09 0  0.7199950000000001 0.0400008 0  0.76 -2.49578e-09 0  0.759996 0.0400005 0  0.8 -2.62713e-09 0  0.799997 0.0400002 0  0.84 -2.75849e-09 0  0.839997 0.0400001 0  0.88 -2.88985e-09 0  0.8799979999999999 0.04 0  0.92 -3.0212e-09 0  0.919999 0.0399999 0  0.96 -3.15256e-09 0  0.959999 0.0399998 0  1 -3.28392e-09 0  1 0.0399998 0  1.04 -3.41527e-09 0  1.04 0.0399998 0  1.08 -3.54663e-09 0  1.08 0.0399998 0  1.12 -3.67799e-09 0  1.12 0.0399998 0  1.16 -3.80934e-09 0  1.16 0.0399999 0  1.2 -3.9407e-09 0  1.2 0.04 0  1.24 -4.07206e-09 0  1.24 0.04 0  1.28 -4.20341e-09 0  1.28 0.0400001 0  1.32 -4.33477e-09 0  1.32 0.0400001 0  1.36 -4.46613e-09 0  1.36 0.04 0  1.4 -4.59748e-09 0  1.4 0.04 0  1.44 -4.72884e-09 0  1.44 0.04 0  1.48 -4.8602e-09 0  1.48 0.04 0  1.52 -4.99156e-09 0  1.52 0.04 0  1.56 -5.12291e-09 0  1.56 0.04 0  1.6 -5.25427e-09 0  1.6 0.0400001 0  1.64 -5.38563e-09 0  1.64 0.0400001 0  1.68 -5.51698e-09 0  1.68 0.04 0  1.72 -5.64834e-09 0  1.72 0.04 0  1.76 -5.7797e-09 0  1.76 0.04 0  1.8 -5.91105e-09 0  1.8 0.04 0  1.84 -6.04241e-09 0  1.84 0.04 0  1.88 -6.17377e-09 0  1.88 0.0400001 0  1.92 -6.30512e-09 0  1.92 0.0400001 0  1.96 -6.43648e-09 0  1.96 0.0400001 0  2 -6.56784e-09 0  2 0.0400001 0  2.04 -6.69919e-09 0  2.04 0.0400001 0  2.08 -6.83055e-09 0  2.08 0.04 0  2.12 -6.96191e-09 0  2.12 0.04 0  2.16 -7.09326e-09 0  2.16 0.0400001 0  2.2 -7.22462e-09 0  2.2 0.04 0  2.24 -7.35598e-09 0  2.24 0.04 0  2.28 -7.48733e-09 0  2.28 0.0399999 0  2.32 -7.618690000000001e-09 0  2.32 0.04 0  2.36 -7.750049999999999e-09 0  2.36 0.04 0  2.4 -7.8814e-09 0  2.4 0.04 0  0.0401088 0.0801235 0  0 0.08 0  0.0802509 0.0802518 0  0.120434 0.0803392 0  0.160522 0.0801977 0  0.199995 0.0795328 0  0.239464 0.0802049 0  0.279544 0.08035689999999999 0  0.319711 0.0802867 0  0.359828 0.08018740000000001 0  0.399896 0.0801123 0  0.439933 0.0800646 0  0.479955 0.0800365 0  0.519968 0.08002049999999999 0  0.559976 0.0800116 0  0.599982 0.0800066 0  0.6399860000000001 0.0800039 0  0.679989 0.0800023 0  0.719991 0.0800014 0  0.759992 0.0800008 0  0.799994 0.0800004 0  0.839995 0.08000019999999999 0  0.879996 0.0799999 0  0.919997 0.07999970000000001 0  0.959999 0.0799996 0  1 0.0799995 0  1.04 0.0799995 0  1.08 0.0799996 0  1.12 0.07999970000000001 0  1.16 0.0799998 0  1.2 0.08 0  1.24 0.0800001 0  1.28 0.0800001 0  1.32 0.0800001 0  1.36 0.08 0  1.4 0.0799999 0  1.44 0.0799999 0  1.48 0.0799999 0  1.52 0.0799999 0  1.56 0.08 0  1.6 0.0800001 0  1.64 0.0800001 0  1.68 0.08 0  1.72 0.0799999 0  1.76 0.0799999 0  1.8 0.0799999 0  1.84 0.0799999 0  1.88 0.08 0  1.92 0.0800001 0  1.96 0.0800001 0  2 0.0800001 0  2.04 0.08 0  2.08 0.0799999 0  2.12 0.0799999 0  2.16 0.08 0  2.2 0.08 0  2.24 0.0799999 0  2.28 0.0799998 0  2.32 0.0799999 0  2.36 0.0799999 0  2.4 0.08 0  0.0401262 0.120184 0  0 0.12 0  0.0803378 0.120435 0  0.120779 0.12078 0  0.161485 0.120859 0  0.199996 0.117814 0  0.238503 0.120866 0  0.279195 0.120798 0  0.319616 0.120473 0  0.359799 0.120256 0  0.39988 0.120136 0  0.439921 0.120073 0  0.479944 0.120039 0  0.519958 0.120022 0  0.5599690000000001 0.120012 0  0.599976 0.120007 0  0.639981 0.120004 0  0.679985 0.120002 0  0.719987 0.120002 0  0.7599900000000001 0.120001 0  0.799991 0.12 0  0.839993 0.12 0  0.879995 0.12 0  0.919996 0.12 0  0.959998 0.119999 0  1 0.119999 0  1.04 0.119999 0  1.08 0.119999 0  1.12 0.12 0  1.16 0.12 0  1.2 0.12 0  1.24 0.12 0  1.28 0.12 0  1.32 0.12 0  1.36 0.12 0  1.4 0.12 0  1.44 0.12 0  1.48 0.12 0  1.52 0.12 0  1.56 0.12 0  1.6 0.12 0  1.64 0.12 0  1.68 0.12 0  1.72 0.12 0  1.76 0.12 0  1.8 0.12 0  1.84 0.12 0  1.88 0.12 0  1.92 0.12 0  1.96 0.12 0  2 0.12 0  2.04 0.12 0  2.08 0.12 0  2.12 0.12 0  2.16 0.12 0  2.2 0.12 0  2.24 0.12 0  2.28 0.12 0  2.32 0.12 0  2.36 0.12 0  2.4 0.12 0  0.0400582 0.160177 0  0 0.16 0  0.0801954 0.160525 0  0.120857 0.161488 0  0.164645 0.164645 0  0.2 0.15 0  0.235355 0.164645 0  0.279119 0.161498 0  0.319759 0.16055 0  0.359874 0.160228 0  0.399906 0.160104 0  0.439925 0.160051 0  0.479941 0.160027 0  0.519954 0.160014 0  0.559964 0.160008 0  0.5999719999999999 0.160005 0  0.639978 0.160003 0  0.679982 0.160002 0  0.719985 0.160001 0  0.759988 0.160001 0  0.79999 0.16 0  0.839992 0.16 0  0.8799940000000001 0.16 0  0.919996 0.159999 0  0.959998 0.159999 0  1 0.159999 0  1.04 0.159999 0  1.08 0.159999 0  1.12 0.16 0  1.16 0.16 0  1.2 0.16 0  1.24 0.16 0  1.28 0.16 0  1.32 0.16 0  1.36 0.16 0  1.4 0.16 0  1.44 0.16 0  1.48 0.16 0  1.52 0.16 0  1.56 0.16 0  1.6 0.16 0  1.64 0.16 0  1.68 0.16 0  1.72 0.16 0  1.76 0.16 0  1.8 0.16 0  1.84 0.16 0  1.88 0.16 0  1.92 0.16 0  1.96 0.16 0  2 0.16 0  2.04 0.16 0  2.08 0.16 0  2.12 0.16 0  2.16 0.16 0  2.2 0.16 0  2.24 0.16 0  2.28 0.16 0  2.32 0.16 0  2.36 0.16 0  2.4 0.16 0  0.0399111 0.2 0  0 0.2 0  0.0795281 0.2 0  0.117811 0.2 0  0.15 0.2 0  0.282167 0.2 0  0.25 0.2 0  0.320429 0.2 0  0.36003 0.200001 0  0.399944 0.200001 0  0.439934 0.200001 0  0.479942 0.200001 0  0.519953 0.200001 0  0.559963 0.200001 0  0.59997 0.200001 0  0.639976 0.200001 0  0.6799809999999999 0.200001 0  0.719984 0.200001 0  0.759987 0.200001 0  0.799989 0.2 0  0.839991 0.2 0  0.879993 0.2 0  0.919996 0.199999 0  0.959998 0.199999 0  1 0.199999 0  1.04 0.199999 0  1.08 0.199999 0  1.12 0.2 0  1.16 0.2 0  1.2 0.2 0  1.24 0.2 0  1.28 0.2 0  1.32 0.2 0  1.36 0.2 0  1.4 0.2 0  1.44 0.2 0  1.48 0.2 0  1.52 0.2 0  1.56 0.2 0  1.6 0.2 0  1.64 0.2 0  1.68 0.2 0  1.72 0.2 0  1.76 0.2 0  1.8 0.2 0  1.84 0.2 0  1.88 0.2 0  1.92 0.2 0  1.96 0.2 0  2 0.2 0  2.04 0.2 0  2.08 0.2 0  2.12 0.2 0  2.16 0.2 0  2.2 0.2 0  2.24 0.2 0  2.28 0.2 0  2.32 0.2 0  2.36 0.2 0  2.4 0.2 0  0.0400582 0.239823 0  0 0.24 0  0.0801953 0.239475 0  0.120857 0.238513 0  0.164645 0.235355 0  0.279119 0.238502 0  0.235355 0.235355 0  0.319759 0.239451 0  0.359873 0.239774 0  0.399905 0.239898 0  0.439925 0.239951 0  0.479941 0.239976 0  0.519954 0.239988 0  0.559964 0.239994 0  0.5999719999999999 0.239997 0  0.639977 0.239999 0  0.679982 0.24 0  0.719985 0.24 0  0.759987 0.24 0  0.79999 0.24 0  0.839992 0.24 0  0.8799940000000001 0.24 0  0.919996 0.239999 0  0.959998 0.239999 0  1 0.239999 0  1.04 0.239999 0  1.08 0.239999 0  1.12 0.24 0  1.16 0.24 0  1.2 0.24 0  1.24 0.24 0  1.28 0.24 0  1.32 0.24 0  1.36 0.24 0  1.4 0.24 0  1.44 0.24 0  1.48 0.24 0  1.52 0.24 0  1.56 0.24 0  1.6 0.24 0  1.64 0.24 0  1.68 0.24 0  1.72 0.24 0  1.76 0.24 0  1.8 0.24 0  1.84 0.24 0  1.88 0.24 0  1.92 0.24 0  1.96 0.24 0  2 0.24 0  2.04 0.24 0  2.08 0.24 0  2.12 0.24 0  2.16 0.24 0  2.2 0.24 0  2.24 0.24 0  2.28 0.24 0  2.32 0.24 0  2.36 0.24 0  2.4 0.24 0  0.0401261 0.279816 0  0 0.28 0  0.0803376 0.279565 0  0.120778 0.27922 0  0.161485 0.279141 0  0.2 0.25 0  0.199996 0.282186 0  0.238503 0.279135 0  0.279195 0.279202 0  0.319616 0.279528 0  0.359799 0.279745 0  0.39988 0.279865 0  0.43992 0.279929 0  0.479944 0.279962 0  0.519958 0.27998 0  0.559968 0.27999 0  0.599976 0.279995 0  0.639981 0.279998 0  0.679984 0.279999 0  0.719987 0.28 0  0.759989 0.28 0  0.799991 0.28 0  0.839993 0.28 0  0.879995 0.28 0  0.919997 0.279999 0  0.959998 0.279999 0  1 0.279999 0  1.04 0.279999 0  1.08 0.28 0  1.12 0.28 0  1.16 0.28 0  1.2 0.28 0  1.24 0.28 0  1.28 0.28 0  1.32 0.28 0  1.36 0.28 0  1.4 0.28 0  1.44 0.28 0  1.48 0.28 0  1.52 0.28 0  1.56 0.28 0  1.6 0.28 0  1.64 0.28 0  1.68 0.28 0  1.72 0.28 0  1.76 0.28 0  1.8 0.28 0  1.84 0.28 0  1.88 0.28 0  1.92 0.28 0  1.96 0.28 0  2 0.28 0  2.04 0.28 0  2.08 0.28 0  2.12 0.28 0  2.16 0.28 0  2.2 0.28 0  2.24 0.28 0  2.28 0.28 0  2.32 0.28 0  2.36 0.28 0  2.4 0.28 0  0.0401086 0.319877 0  0 0.32 0  0.08025060000000001 0.319748 0  0.120433 0.319661 0  0.160522 0.319802 0  0.199995 0.320467 0  0.239464 0.319795 0  0.279543 0.319643 0  0.31971 0.319714 0  0.359828 0.319813 0  0.399895 0.319889 0  0.439933 0.319937 0  0.479955 0.319965 0  0.519968 0.319981 0  0.559976 0.31999 0  0.599982 0.319995 0  0.6399860000000001 0.319998 0  0.679989 0.319999 0  0.719991 0.32 0  0.759992 0.32 0  0.799994 0.32 0  0.839995 0.32 0  0.879996 0.32 0  0.919998 0.32 0  0.959999 0.32 0  1 0.32 0  1.04 0.32 0  1.08 0.32 0  1.12 0.32 0  1.16 0.32 0  1.2 0.32 0  1.24 0.32 0  1.28 0.32 0  1.32 0.32 0  1.36 0.32 0  1.4 0.32 0  1.44 0.32 0  1.48 0.32 0  1.52 0.32 0  1.56 0.32 0  1.6 0.32 0  1.64 0.32 0  1.68 0.32 0  1.72 0.32 0  1.76 0.32 0  1.8 0.32 0  1.84 0.32 0  1.88 0.32 0  1.92 0.32 0  1.96 0.32 0  2 0.32 0  2.04 0.32 0  2.08 0.32 0  2.12 0.32 0  2.16 0.32 0  2.2 0.32 0  2.24 0.32 0  2.28 0.32 0  2.32 0.32 0  2.36 0.32 0  2.4 0.32 0  0.0400579 0.359942 0  0 0.36 0  0.0801229 0.359891 0  0.120183 0.359873 0  0.160175 0.35994 0  0.199997 0.360086 0  0.239816 0.359936 0  0.279804 0.359862 0  0.319855 0.359871 0  0.359906 0.359906 0  0.399941 0.35994 0  0.439962 0.359964 0  0.479975 0.359979 0  0.5199820000000001 0.359989 0  0.559987 0.359994 0  0.59999 0.359997 0  0.639993 0.359998 0  0.679994 0.359999 0  0.7199950000000001 0.36 0  0.759996 0.36 0  0.799997 0.36 0  0.839997 0.36 0  0.8799979999999999 0.36 0  0
[...]
<PointData  Scalars="f_10391-0"> 
<DataArray  type="Float64"  Name="f_10391-0"  format="ascii">3.4575232966076688e-02  3.4905979109932962e-02  3.5567696172050821e-02  3.4775523266694371e-02  3.4712778040430291e-02  3.6221889118349643e-02  3.2270767808778841e-02  3.3593274737003229e-02  2.7857650659282092e-02  2.8360462015846816e-02  2.3004131590695576e-02  2.3098500452027493e-02  1.8478186670671956e-02  1.8395850438986699e-02  1.4595455976579038e-02  1.4453144173869141e-02  1.1406447673628436e-02  1.1263798191244232e-02  8.8456385027918145e-03  8.7259783214557688e-03  6.8135638959386556e-03  6.7212600192512392e-03  5.2124183950154673e-03  5.1442349870882862e-03  3.9578026205055140e-03  3.9085507887567433e-03  2.9803408760738074e-03  2.9451876325320651e-03  2.2238855766930181e-03  2.1989745016243369e-03  1.6430735459437727e-03  1.6254780216555260e-03  1.2011614708226511e-03  1.1887529682497726e-03  8.6833563983887180e-04  8.5961178707260320e-04  6.2043430846153887e-04  6.1431232878209952e-04  4.3796419163754448e-04  4.3367823456174731e-04  3.0532055284659271e-04  3.0232928018387968e-04  2.1014060694014234e-04  2.0806323288780906e-04  1.4275139174254846e-04  1.4131436138794306e-04  9.5688644292220957e-05  9.4700320534822004e-05  6.3278140105685625e-05  6.2603740538227131e-05  4.1273602457399299e-05  4.0816497758203657e-05  2.6548101425528902e-05  2.6241247025343653e-05  1.6836775532326895e-05  1.6632734412320277e-05  1.0526247689436506e-05  1.0391961555705501e-05  6.4864079981351626e-06  6.3989973713812503e-06  3.9389361467476871e-06  3.8826989961643535e-06  2.3568184783345657e-06  2.3210799902958501e-06  1.3892312341838570e-06  1.3668096868499395e-06  8.0658918427093215e-07  7.9270935541819721e-07  4.6119775801035423e-07  4.5272381940311069e-07  2.5966022245367825e-07  2.5456000107681877e-07  1.4392363598653995e-07  1.4089865246092394e-07  7.8521853670423933e-08  7.6754475145655166e-08  4.2160122672019709e-08  4.1143260304347835e-08  2.2273313705084861e-08  2.1697367515566549e-08  1.1575918549507871e-08  1.1254874835292184e-08  5.9173381418219420e-09  5.7412695699782190e-09  2.9744493557511304e-09  2.8794736736090289e-09  1.4699447512510361e-09  1.4195662318628251e-09  7.1401909914701704e-10  6.8774873580135880e-10  3.4082214352938005e-10  3.2735852728918248e-10  1.5982459122145702e-10  1.5304476467190949e-10  7.3610392318567816e-11  7.0256681841824270e-11  3.3288037444175193e-11  3.1658886821293640e-11  1.4775960423513353e-11  1.3998987645357742e-11  6.4357086348953632e-12  6.0720171334758953e-12  2.7494952592460727e-12  2.5824584093122262e-12  1.1517401519844628e-12  1.0764914356300177e-12  4.7284020169141668e-13  4.3960126678979560e-13  1.9016385596305085e-13  1.7577261264765488e-13  7.4881169669237182e-14  6.8776445142675543e-14  2.8856370324964718e-14  2.6320446167507974e-14  1.0886198159978607e-14  9.8552685737826732e-15  4.0534826994442515e-15  3.6421950096840943e-15  1.6079431875170627e-15  1.4337698104243228e-15  1.0638738359914307e-15  9.0004311238472194e-16  3.5864957616925930e-02  3.4227307688077746e-02  3.9151584050748527e-02  3.6923378951090477e-02  2.9533172222582123e-02  2.3163275107952151e-02  1.8002258036364873e-02  1.3941035324628913e-02  1.0799968533411876e-02  8.3587512088888257e-03  6.4478818817592723e-03  4.9469300337902679e-03  3.7684694134560736e-03  2.8466931597045169e-03  2.1301484366931531e-03  1.5776214756343413e-03  1.1556399710225833e-03  8.3679638745783036e-04  5.9867179597015161e-04  4.2301614686887439e-04  2.9509971414408816e-04  2.0319137442831303e-04  1.3805463159195859e-04  9.2535027168059924e-05  6.1175199470387537e-05  3.9882599531627091e-05  2.5636050693695820e-05  1.6244161116839182e-05  1.0144900123593413e-05  6.2435118283546219e-06  3.7858890715905436e-06  2.2614740918417026e-06  1.3305354763974153e-06  7.7089943990864780e-07  4.3977382663229663e-07  2.4696963434489968e-07  1.3650871264285990e-07  7.4250181174063565e-08  3.9734697420555436e-08  2.0916507951620985e-08  1.0828376264158532e-08  5.5118372423921753e-09  2.7579572654405981e-09  1.3562213019881467e-09  6.5525936743349778e-10  3.1096856313506881e-10  1.4491502731828585e-10  6.6293061662292550e-11  2.9760102332244651e-11  1.3105529461438930e-11  5.6592246213369490e-12  2.3952681310746895e-12  9.9320791640478804e-13  4.0326159736422018e-13  1.6022884187738331e-13  6.2261953064903045e-14  2.3646368454464067e-14  8.7796205087977022e-15  3.2139056656808033e-15  1.2492828071124576e-15  7.6893163023462021e-16  3.2738202844318234e-02  3.1297851328000198e-02  3.6402641474211968e-02  3.5445199903595459e-02  2.8968129884629577e-02  2.2568267031704111e-02  1.6933811164894272e-02  1.2888554254865590e-02  9.9652318067880580e-03  7.7443835241345774e-03  6.0085883343923953e-03  4.6366792999147080e-03  3.5508349590041787e-03  2.6947126536525645e-03  2.0244165871833222e-03  1.5043863461095606e-03  1.1051437400307600e-03  8.0215341096701628e-04  5.7504035153542303e-04  4.0698740913430471e-04  2.8430666482800852e-04  1.9597160259467714e-04  1.3326134159031229e-04  8.9378945028056932e-05  5.9114754157739137e-05  3.8548910027092607e-05  2.4781028970786743e-05  1.5701329434698987e-05  9.8037395568631483e-06  6.0313522403083242e-06  3.6553892633478509e-06  2.1821084204372573e-06  1.2828304184738760e-06  7.4256985093044928e-07  4.2315896214471958e-07  2.3734969474519065e-07  1.3101194839263514e-07  7.1151740537635698e-08  3.8012330295692494e-08  1.9972663806518291e-08  1.0318677630437898e-08  5.2406832761884914e-09  2.6159017803654220e-09  1.2829576608600952e-09  6.1807538117547948e-10  2.9240303035158154e-10  1.3579933679561213e-10  6.1893144029761427e-11  2.7673152259331895e-11  1.2133170051970605e-11  5.2143707667383561e-12  2.1955101870632380e-12  9.0520478911559608e-13  3.6524304391807241e-13  1.4413054117479866e-13  5.5584231745566783e-14  2.0933927948731625e-14  7.6998638509853415e-15  2.7880563134181328e-15  1.0685761930662741e-15  6.4901257854724105e-16  2.7007611044044810e-02  2.6406364421405031e-02  2.8460639388928257e-02  2.8342658556735387e-02  2.6045757035709726e-02  2.1545136433860065e-02  1.4466132993979293e-02  1.1093412065517914e-02  8.7550009254596713e-03  6.9233039191197434e-03  5.4442301554085016e-03  4.2455152537961205e-03  3.2786869988970717e-03  2.5053146044914983e-03  1.8928784699351225e-03  1.4133302153515393e-03  1.0423926258526625e-03  7.5914246534227619e-04  5.4573208005266897e-04  3.8714933059396284e-04  2.7097153404474642e-04  1.8707699026369987e-04  1.2737619323891308e-04  8.5517157052643271e-05  5.6603557940953143e-05  3.6931092771994713e-05  2.3748811168637177e-05  1.5049344618020184e-05  9.3962004495182166e-06  5.7793549800903410e-06  3.5013023338195719e-06  2.0889713630863061e-06  1.2272002509529361e-06  7.0974705509294278e-07  4.0403551549780544e-07  2.2635127616735437e-07  1.2477004151391176e-07  6.7657296946724513e-08  3.6083193715914614e-08  1.8922825051935985e-08  9.7556778874744024e-09  4.9432630499139437e-09  2.4611773928895273e-09  1.2037219927564615e-09  5.7814506124290911e-10  2.7260830413850013e-10  1.2614991946421778e-10  5.7269406826873877e-11  2.5496158752868889e-11  1.1126430679482860e-11  4.7572952976107769e-12  1.9918640746175359e-12  8.1620787571115126e-13  3.2711334783147082e-13  1.2812374133677198e-13  4.9003867640837578e-14  1.8286072076767315e-14  6.6561926769398201e-15  2.3808250998933797e-15  8.9833876662006268e-16  5.3855286625090701e-16  2.1408589928870934e-02  2.1239570116303046e-02  2.1685784561696304e-02  2.1397890555186764e-02  2.0615013858767225e-02  8.7094989671432435e-03  9.8487688323259989e-03  7.3578416860775918e-03  6.0194748118585885e-03  4.8311147634322203e-03  3.8213246737925648e-03  2.9831426513513715e-03  2.2991647270264488e-03  1.7493668832011078e-03  1.3138165247998292e-03  9.7372364352890986e-04  7.1202616748041337e-04  5.1361520280910776e-04  3.6541022067304075e-04  2.5636711971878764e-04  1.7734345938167433e-04  1.2094318720230811e-04  8.1301864804077240e-05  5.3867174398460806e-05  3.5171673558763255e-05  2.2628711880489403e-05  1.4343562804401768e-05  8.9561951382121875e-06  5.5080478089453712e-06  3.3359046951234947e-06  1.9893135946689321e-06  1.1678726547775635e-06  6.7486381330466919e-07  3.8378468077849014e-07  2.1474783490268044e-07  1.1821009076374620e-07  6.3999357505656356e-08  3.4072034191135062e-08  1.7832936937344428e-08  9.1737176401633635e-09  4.6371864667656907e-09  2.3026735631524391e-09  1.1229301729073009e-09  5.3762638010907456e-10  2.5262154824532837e-10  1.1645682331618442e-10  5.2649381820260741e-11  2.3332894769005567e-11  1.0131777928910438e-11  4.3084120586973592e-12  1.7931235140670839e-12  7.2992841990895152e-13  2.9040582095642540e-13  1.1282806228335229e-13  4.2765506458195990e-14  1.5797098743554422e-14  5.6841562143932740e-15  2.0054801676052758e-15  7.4350783992592726e-16  4.3935500750396301e-16  1.6672420601402515e-02  1.6703185675828510e-02  1.6445720349146684e-02  1.5659701056223094e-02  1.3518336875013599e-02  7.3215161459708857e-03  8.0823590507172402e-03  6.2726603815560153e-03  5.2248300390360138e-03  4.2622673857154120e-03  3.4173663631568902e-03  2.6975960469108632e-03  2.0982099069008124e-03  1.6086473016622910e-03  1.2158123391734139e-03  9.0589735543474383e-04  6.6539156772906372e-04  4.8177786786508770e-04  3.4384042568848082e-04  2.4186378435934910e-04  1.6767332471891118e-04  1.1455105191103069e-04  7.7115256563654107e-05  5.1150166720399567e-05  3.3425453270586063e-05  2.1517640880154556e-05  1.3643958993302405e-05  8.5203963560763504e-06  5.2395841347405338e-06  3.1724111202740622e-06  1.8909166658979008e-06  1.1093696372600747e-06  6.4051266557451877e-07  3.6387239828433631e-07  2.0335666984378516e-07  1.1178124707536131e-07  6.0421153085513132e-08  3.2108609566906192e-08  1.6771172053062373e-08  8.6080589882882862e-09  4.3404044438774426e-09  2.1493811727821040e-09  1.0450111962460814e-09  4.9866434269222227e-10  2.3346366544777280e-10  1.0719733700911882e-10  4.8252152413816414e-11  2.1282037686321829e-11  9.1927964487320482e-12  3.8865860293963430e-12  1.6072833913035763e-12  6.4968063719363074e-13  2.5646277173599436e-13  9.8773890539163304e-14  3.7073233729405953e-14  1.3543331080739697e-14  4.8114564069549836e-15  1.6718101090843422e-15  6.0755655048908093e-16  3.5315405100826313e-16  1.3087084149027862e-02  1.3199197562876356e-02  1.2696829112762506e-02  1.1888191043237998e-02  1.0432371837298417e-02  9.4619152358052620e-03  8.4504441369039028e-03  7.2882097856385450e-03  6.3533895571079727e-03  5.4534261630507534e-03  4.5903991635783464e-03  3.7898660305529307e-03  3.0730416094608419e-03  2.4500016743101388e-03  1.9219766133493409e-03  1.4842672229191897e-03  1.1287131485288625e-03  8.4536690447477943e-04  6.2365562144906450e-04  4.5321596418864438e-04  3.2444908845990789e-04  2.2880819411185926e-04  1.5895639647694532e-04  1.0878178379618243e-04  7.3331494197574404e-05  4.8692403393324631e-05  3.1844207215719784e-05  2.0510538255030457e-05  1.3009180029570097e-05  8.1246155991897646e-06  4.9955526748548520e-06  3.0236680059749411e-06  1.8013238873293005e-06  1.0560607615039435e-06  6.0918979307089735e-07  3.4570452473414217e-07  1.9295814727642963e-07  1.0591029806758906e-07  5.7152584624769453e-08  3.0314858897065137e-08  1.5801191107856836e-08  8.0914037531203585e-09  4.0694396882276518e-09  2.0095080333318005e-09  9.7397212817376065e-10  4.6318060832300135e-10  2.1603945558049934e-10  9.8789489515050249e-11  4.4267109289991361e-11  1.9427665923965688e-11  8.3460295611487753e-12  3.5073513268838921e-12  1.4407940178503749e-12  5.7807685862189143e-13  2.2631409027473176e-13  8.6355476938645161e-14  3.2073097534344003e-14  1.1576880852224614e-14  4.0558890174051287e-15  1.3855902488820853e-15  4.9229811533119396e-16  2.8075200964296906e-16  1.0674434560802026e-02  1.0804955474069457e-02  1.0283702112437709e-02  9.6153570844005783e-03  8.6464231649561810e-03  7.4924782311711086e-03  6.5269169005139323e-03  5.6742677030691214e-03  4.8818859677491923e-03  4.1347682503616329e-03  3.4410889775602846e-03  2.8133582339956325e-03  2.2603936407899305e-03  1.7855177122063446e-03  1.3871984268925448e-03  1.0603453185607963e-03  7.9763889412861537e-04  5.9061276701757241e-04  4.3053106741209284e-04  3.0900338585605357e-04  2.1837701318326691e-04  1.5197274983355573e-04  1.0414715244995322e-04  7.0282633835715402e-05  4.6705367080329228e-05  3.0561967845523297e-05  1.9691125151218553e-05  1.2490941080623233e-05  7.8003485822855169e-06  4.7948900650801118e-06  2.9009106482107402e-06  1.7271107923878135e-06  1.0117408585706079e-06  5.8305404661468062e-07  3.3049130802842168e-07  1.8422060808696069e-07  1.0096068979745306e-07  5.4388206257652232e-08  2.8793260719016320e-08  1.4976087652978112e-08  7.6507964632460574e-09  3.8378298535906865e-09  1.8897101441510606e-09  9.1302548756391750e-10  4.3269631084492536e-10  2.0105501940280729e-10  9.1554338538099852e-11  4.0837106585583620e-11  1.7831907247626999e-11  7.6178488275805967e-12  3.1816137144677649e-12  1.2980389325983734e-12  5.1682423406771657e-13  2.0060109881428188e-13  7.5803707999618662e-14  2.7843935609443482e-14  9.9228233769070310e-15  3.4246207293842904e-15  1.1484973594200828e-15  3.9789675966924251e-16  2.2178476158820114e-16  9.3156698566410189e-03  9.4478286153007966e-03  8.9607828289149684e-03  8.4038640408803898e-03  7.6722176659272806e-03  6.8370087886250571e-03  6.0256765239255078e-03  5.2607395658878769e-03  4.5394055827555711e-03  3.8596165757066570e-03  3.2274380927162214e-03  2.6521179295093478e-03  2.1413337603339408e-03  1.6990715968057250e-03  1.3252530742395036e-03  1.0164474052410547e-03  7.6681886098485606e-04  5.6916559922077798e-04  4.1572598578070184e-04  2.9886216273554628e-04  2.1148728319173648e-04  1.4732981777831796e-04  1.0104315597080915e-04  6.8225785223988822e-05  4.5354008705780373e-05  2.9682607620310334e-05  1.9124176446228649e-05  1.2129068313393015e-05  7.5717775843303226e-06  4.6520859529193312e-06  2.8127005540686947e-06  1.6732644014583044e-06  9.7927264296266539e-07  5.6372424475654130e-07  3.1913417484871031e-07  1.7763812944025073e-07  9.7198863060367907e-08  5.2269318736968413e-08  2.7617470673106917e-08  1.4333579352679003e-08  7.3051995495732375e-09  3.6549279902995327e-09  1.7945100090885626e-09  8.6431303435884648e-10  4.0820377279752523e-10  1.8895956352100410e-10  8.5690232497233603e-11  3.8047390382889426e-11  1.6530320962692207e-11  7.0225947673475492e-12  2.9149327141369548e-12  1.1810718302178864e-12  4.6663489981207026e-13  1.7954901567297263e-13  6.7179241695832333e-14  2.4396537926527487e-14  8.5797007440260116e-15  2.9147719921312409e-15  9.5857227895845955e-16  3.2320205968768719e-16  1.7425938649895206e-16  8.8870886502693345e-03  9.0543523654227302e-03  8.5414974606278626e-03  8.0221340998354491e-03  7.3589502629184166e-03  6.6074398879895141e-03  5.8481871446143070e-03  5.1167600565978424e-03  4.4214602386189400e-03  3.7649530605832347e-03  3.1535871628798049e-03  2.5959603893920538e-03  2.0995004885110769e-03  1.6683823473351797e-03  1.3030074295520434e-03  1.0004664496322197e-03  7.5542697199151930e-04  5.6109033754611441e-04  4.1003507873675388e-04  2.9487401075996777e-04  2.0870845413380759e-04  1.4540396301164499e-04  9.9718052321721821e-05  6.7320604561823413e-05  4.4740542419560116e-05  2.9270104265554448e-05  1.8849375067415513e-05  1.1947846307099874e-05  7.4535588552993622e-06  4.5758540361774164e-06  2.7641413852607608e-06  1.6427281672448715e-06  9.6032685685396798e-07  5.5213321259424376e-07  3.1214512064033433e-07  1.7348677772328817e-07  9.4770938202663560e-08  5.0871775633724400e-08  2.6826068762850690e-08  1.3892867626627903e-08  7.0639505081135238e-09  3.5251622283912243e-09  1.7259503742754904e-09  8.2874832111078540e-10  3.9009715341937740e-10  1.7991596011198514e-10  8.1260859986973176e-11  3.5921019743910729e-11  1.5530281097211184e-11  6.5620781699731196e-12  2.7074082585017719e-12  1.0896165121797801e-12  4.2724807865642444e-13  1.6298595231316808e-13  6.0384514917672373e-14  2.1680267720072513e-14  7.5229103367579621e-15  2.5151634651261458e-15  8.1139778033751092e-16  2.6688967873288452e-16  1.3158370706313567e-16  </DataArray> 
</PointData> 
</Piece>
</UnstructuredGrid>
</VTKFile>