<?xml version="1.0"?>
<VTKFile type="UnstructuredGrid"  version="0.1"  >
<UnstructuredGrid>
<Piece  NumberOfPoints="670" NumberOfCells="1192">
<Points>
<DataArray  type="Float64"  NumberOfComponents="3"  format="ascii">0 0 0  0.04 -1.31357e-10 0  0.0400579 0.0400582 0  0 0.04 0  0.08 -2.62713e-10 0  0.080123 0.0401093 0  0.12 -3.9407e-10 0  0.120183 0.040127 0  0.16 -5.25427e-10 0  0.160176 0.0400597 0  0.2 -6.56784e-10 0  0.199997 0.0399142 0  0.24 -7.8814e-10 0  0.239816 0.0400642 0  0.28 -9.19497e-10 0  0.279804 0.0401377 0  0.32 -1.05085e-09 0  0.319855 0.0401297 0  0.36 -1.18221e-09 0  0.359906 0.0400945 0  0.4 -1.31357e-09 0  0.399941 0.0400609 0  0.44 -1.44492e-09 0  0.439962 0.0400367 0  0.48 -1.57628e-09 0  0.479975 0.0400214 0  0.52 -1.70764e-09 0  0.519983 0.0400122 0  0.5600000000000001 -1.83899e-09 0  0.559987 0.0400069 0  0.6 -1.97035e-09 0  0.59999 0.040004 0  0.64 -2.10171e-09 0  0.639993 0.0400023 0  0.68 -2.23306e-09 0  0.679994 0.0400013 0  0.72 -2.36442e-09 0  0.7199950000000001 0.0400008 0  0.76 -2.49578e-09 0  0.759996 0.0400005 0  0.8 -2.62713e-09 0  0.799997 0.0400002 0  0.84 -2.75849e-09 0  0.839997 0.0400001 0  0.88 -2.88985e-09 0  0.8799979999999999 0.04 0  0.92 -3.0212e-09 0  0.919999 0.0399999 0  0.96 -3.15256e-09 0  0.959999 0.0399998 0  1 -3.28392e-09 0  1 0.0399998 0  1.04 -3.41527e-09 0  1.04 0.0399998 0  1.08 -3.54663e-09 0  1.08 0.0399998 0  1.12 -3.67799e-09 0  1.12 0.0399998 0  1.16 -3.80934e-09 0  1.16 0.0399999 0  1.2 -3.9407e-09 0  1.2 0.04 0  1.24 -4.07206e-09 0  1.24 0.04 0  1.28 -4.20341e-09 0  1.28 0.0400001 0  1.32 -4.33477e-09 0  1.32 0.0400001 0  1.36 -4.46613e-09 0  1.36 0.04 0  1.4 -4.59748e-09 0  1.4 0.04 0  1.44 -4.72884e-09 0  1.44 0.04 0  1.48 -4.8602e-09 0  1.48 0.04 0  1.52 -4.99156e-09 0  1.52 0.04 0  1.56 -5.12291e-09 0  1.56 0.04 0  1.6 -5.25427e-09 0  1.6 0.0400001 0  1.64 -5.38563e-09 0  1.64 0.0400001 0  1.68 -5.51698e-09 0  1.68 0.04 0  1.72 -5.64834e-09 0  1.72 0.04 0  1.76 -5.7797e-09 0  1.76 0.04 0  1.8 -5.91105e-09 0  1.8 0.04 0  1.84 -6.04241e-09 0  1.84 0.04 0  1.88 -6.17377e-09 0  1.88 0.0400001 0  1.92 -6.30512e-09 0  1.92 0.0400001 0  1.96 -6.43648e-09 0  1.96 0.0400001 0  2 -6.56784e-09 0  2 0.0400001 0  2.04 -6.69919e-09 0  2.04 0.0400001 0  2.08 -6.83055e-09 0  2.08 0.04 0  2.12 -6.96191e-09 0  2.12 0.04 0  2.16 -7.09326e-09 0  2.16 0.0400001 0  2.2 -7.22462e-09 0  2.2 0.04 0  2.24 -7.35598e-09 0  2.24 0.04 0  2.28 -7.48733e-09 0  2.28 0.0399999 0  2.32 -7.618690000000001e-09 0  2.32 0.04 0  2.36 -7.750049999999999e-09 0  2.36 0.04 0  2.4 -7.8814e-09 0  2.4 0.04 0  0.0401088 0.0801235 0  0 0.08 0  0.0802509 0.0802518 0  0.120434 0.0803392 0  0.160522 0.0801977 0  0.199995 0.0795328 0  0.239464 0.0802049 0  0.279544 0.08035689999999999 0  0.319711 0.0802867 0  0.359828 0.08018740000000001 0  0.399896 0.0801123 0  0.439933 0.0800646 0  0.479955 0.0800365 0  0.519968 0.08002049999999999 0  0.559976 0.0800116 0  0.599982 0.0800066 0  0.6399860000000001 0.0800039 0  0.679989 0.0800023 0  0.719991 0.0800014 0  0.759992 0.0800008 0  0.799994 0.0800004 0  0.839995 0.08000019999999999 0  0.879996 0.0799999 0  0.919997 0.07999970000000001 0  0.959999 0.0799996 0  1 0.0799995 0  1.04 0.0799995 0  1.08 0.0799996 0  1.12 0.07999970000000001 0  1.16 0.0799998 0  1.2 0.08 0  1.24 0.0800001 0  1.28 0.0800001 0  1.32 0.0800001 0  1.36 0.08 0  1.4 0.0799999 0  1.44 0.0799999 0  1.48 0.0799999 0  1.52 0.0799999 0  1.56 0.08 0  1.6 0.0800001 0  1.64 0.0800001 0  1.68 0.08 0  1.72 0.0799999 0  1.76 0.0799999 0  1.8 0.0799999 0  1.84 0.0799999 0  1.88 0.08 0  1.92 0.0800001 0  1.96 0.0800001 0  2 0.0800001 0  2.04 0.08 0  2.08 0.0799999 0  2.12 0.0799999 0  2.16 0.08 0  2.2 0.08 0  2.24 0.0799999 0  2.28 0.0799998 0  2.32 0.0799999 0  2.36 0.0799999 0  2.4 0.08 0  0.0401262 0.120184 0  0 0.12 0  0.0803378 0.120435 0  0.120779 0.12078 0  0.161485 0.120859 0  0.199996 0.117814 0  0.238503 0.120866 0  0.279195 0.120798 0  0.319616 0.120473 0  0.359799 0.120256 0  0.39988 0.120136 0  0.439921 0.120073 0  0.479944 0.120039 0  0.519958 0.120022 0  0.5599690000000001 0.120012 0  0.599976 0.120007 0  0.639981 0.120004 0  0.679985 0.120002 0  0.719987 0.120002 0  0.7599900000000001 0.120001 0  0.799991 0.12 0  0.839993 0.12 0  0.879995 0.12 0  0.919996 0.12 0  0.959998 0.119999 0  1 0.119999 0  1.04 0.119999 0  1.08 0.119999 0  1.12 0.12 0  1.16 0.12 0  1.2 0.12 0  1.24 0.12 0  1.28 0.12 0  1.32 0.12 0  1.36 0.12 0  1.4 0.12 0  1.44 0.12 0  1.48 0.12 0  1.52 0.12 0  1.56 0.12 0  1.6 0.12 0  1.64 0.12 0  1.68 0.12 0  1.72 0.12 0  1.76 0.12 0  1.8 0.12 0  1.84 0.12 0  1.88 0.12 0  1.92 0.12 0  1.96 0.12 0  2 0.12 0  2.04 0.12 0  2.08 0.12 0  2.12 0.12 0  2.16 0.12 0  2.2 0.12 0  2.24 0.12 0  2.28 0.12 0  2.32 0.12 0  2.36 0.12 0  2.4 0.12 0  0.0400582 0.160177 0  0 0.16 0  0.0801954 0.160525 0  0.120857 0.161488 0  0.164645 0.164645 0  0.2 0.15 0  0.235355 0.164645 0  0.279119 0.161498 0  0.319759 0.16055 0  0.359874 0.160228 0  0.399906 0.160104 0  0.439925 0.160051 0  0.479941 0.160027 0  0.519954 0.160014 0  0.559964 0.160008 0  0.5999719999999999 0.160005 0  0.639978 0.160003 0  0.679982 0.160002 0  0.719985 0.160001 0  0.759988 0.160001 0  0.79999 0.16 0  0.839992 0.16 0  0.8799940000000001 0.16 0  0.919996 0.159999 0  0.959998 0.159999 0  1 0.159999 0  1.04 0.159999 0  1.08 0.159999 0  1.12 0.16 0  1.16 0.16 0  1.2 0.16 0  1.24 0.16 0  1.28 0.16 0  1.32 0.16 0  1.36 0.16 0  1.4 0.16 0  1.44 0.16 0  1.48 0.16 0  1.52 0.16 0  1.56 0.16 0  1.6 0.16 0  1.64 0.16 0  1.68 0.16 0  1.72 0.16 0  1.76 0.16 0  1.8 0.16 0  1.84 0.16 0  1.88 0.16 0  1.92 0.16 0  1.96 0.16 0  2 0.16 0  2.04 0.16 0  2.08 0.16 0  2.12 0.16 0  2.16 0.16 0  2.2 0.16 0  2.24 0.16 0  2.28 0.16 0  2.32 0.16 0  2.36 0.16 0  2.4 0.16 0  0.0399111 0.2 0  0 0.2 0  0.0795281 0.2 0  0.117811 0.2 0  0.15 0.2 0  0.282167 0.2 0  0.25 0.2 0  0.320429 0.2 0  0.36003 0.200001 0  0.399944 0.200001 0  0.439934 0.200001 0  0.479942 0.200001 0  0.519953 0.200001 0  0.559963 0.200001 0  0.59997 0.200001 0  0.639976 0.200001 0  0.6799809999999999 0.200001 0  0.719984 0.200001 0  0.759987 0.200001 0  0.799989 0.2 0  0.839991 0.2 0  0.879993 0.2 0  0.919996 0.199999 0  0.959998 0.199999 0  1 0.199999 0  1.04 0.199999 0  1.08 0.199999 0  1.12 0.2 0  1.16 0.2 0  1.2 0.2 0  1.24 0.2 0  1.28 0.2 0  1.32 0.2 0  1.36 0.2 0  1.4 0.2 0  1.44 0.2 0  1.48 0.2 0  1.52 0.2 0  1.56 0.2 0  1.6 0.2 0  1.64 0.2 0  1.68 0.2 0  1.72 0.2 0  1.76 0.2 0  1.8 0.2 0  1.84 0.2 0  1.88 0.2 0  1.92 0.2 0  1.96 0.2 0  2 0.2 0  2.04 0.2 0  2.08 0.2 0  2.12 0.2 0  2.16 0.2 0  2.2 0.2 0  2.24 0.2 0  2.28 0.2 0  2.32 0.2 0  2.36 0.2 0  2.4 0.2 0  0.0400582 0.239823 0  0 0.24 0  0.0801953 0.239475 0  0.120857 0.238513 0  0.164645 0.235355 0  0.279119 0.238502 0  0.235355 0.235355 0  0.319759 0.239451 0  0.359873 0.239774 0  0.399905 0.239898 0  0.439925 0.239951 0  0.479941 0.239976 0  0.519954 0.239988 0  0.559964 0.239994 0  0.5999719999999999 0.239997 0  0.639977 0.239999 0  0.679982 0.24 0  0.719985 0.24 0  0.759987 0.24 0  0.79999 0.24 0  0.839992 0.24 0  0.8799940000000001 0.24 0  0.919996 0.239999 0  0.959998 0.239999 0  1 0.239999 0  1.04 0.239999 0  1.08 0.239999 0  1.12 0.24 0  1.16 0.24 0  1.2 0.24 0  1.24 0.24 0  1.28 0.24 0  1.32 0.24 0  1.36 0.24 0  1.4 0.24 0  1.44 0.24 0  1.48 0.24 0  1.52 0.24 0  1.56 0.24 0  1.6 0.24 0  1.64 0.24 0  1.68 0.24 0  1.72 0.24 0  1.76 0.24 0  1.8 0.24 0  1.84 0.24 0  1.88 0.24 0  1.92 0.24 0  1.96 0.24 0  2 0.24 0  2.04 0.24 0  2.08 0.24 0  2.12 0.24 0  2.16 0.24 0  2.2 0.24 0  2.24 0.24 0  2.28 0.24 0  2.32 0.24 0  2.36 0.24 0  2.4 0.24 0  0.0401261 0.279816 0  0 0.28 0  0.0803376 0.279565 0  0.120778 0.27922 0  0.161485 0.279141 0  0.2 0.25 0  0.199996 0.282186 0  0.238503 0.279135 0  0.279195 0.279202 0  0.319616 0.279528 0  0.359799 0.279745 0  0.39988 0.279865 0  0.43992 0.279929 0  0.479944 0.279962 0  0.519958 0.27998 0  0.559968 0.27999 0  0.599976 0.279995 0  0.639981 0.279998 0  0.679984 0.279999 0  0.719987 0.28 0  0.759989 0.28 0  0.799991 0.28 0  0.839993 0.28 0  0.879995 0.28 0  0.919997 0.279999 0  0.959998 0.279999 0  1 0.279999 0  1.04 0.279999 0  1.08 0.28 0  1.12 0.28 0  1.16 0.28 0  1.2 0.28 0  1.24 0.28 0  1.28 0.28 0  1.32 0.28 0  1.36 0.28 0  1.4 0.28 0  1.44 0.28 0  1.48 0.28 0  1.52 0.28 0  1.56 0.28 0  1.6 0.28 0  1.64 0.28 0  1.68 0.28 0  1.72 0.28 0  1.76 0.28 0  1.8 0.28 0  1.84 0.28 0  1.88 0.28 0  1.92 0.28 0  1.96 0.28 0  2 0.28 0  2.04 0.28 0  2.08 0.28 0  2.12 0.28 0  2.16 0.28 0  2.2 0.28 0  2.24 0.28 0  2.28 0.28 0  2.32 0.28 0  2.36 0.28 0  2.4 0.28 0  0.0401086 0.319877 0  0 0.32 0  0.08025060000000001 0.319748 0  0.120433 0.319661 0  0.160522 0.319802 0  0.199995 0.320467 0  0.239464 0.319795 0  0.279543 0.319643 0  0.31971 0.319714 0  0.359828 0.319813 0  0.399895 0.319889 0  0.439933 0.319937 0  0.479955 0.319965 0  0.519968 0.319981 0  0.559976 0.31999 0  0.599982 0.319995 0  0.6399860000000001 0.319998 0  0.679989 0.319999 0  0.719991 0.32 0  0.759992 0.32 0  0.799994 0.32 0  0.839995 0.32 0  0.879996 0.32 0  0.919998 0.32 0  0.959999 0.32 0  1 0.32 0  1.04 0.32 0  1.08 0.32 0  1.12 0.32 0  1.16 0.32 0  1.2 0.32 0  1.24 0.32 0  1.28 0.32 0  1.32 0.32 0  1.36 0.32 0  1.4 0.32 0  1.44 0.32 0  1.48 0.32 0  1.52 0.32 0  1.56 0.32 0  1.6 0.32 0  1.64 0.32 0  1.68 0.32 0  1.72 0.32 0  1.76 0.32 0  1.8 0.32 0  1.84 0.32 0  1.88 0.32 0  1.92 0.32 0  1.96 0.32 0  2 0.32 0  2.04 0.32 0  2.08 0.32 0  2.12 0.32 0  2.16 0.32 0  2.2 0.32 0  2.24 0.32 0  2.28 0.32 0  2.32 0.32 0  2.36 0.32 0  2.4 0.32 0  0.0400579 0.359942 0  0 0.36 0  0.0801229 0.359891 0  0.120183 0.359873 0  0.160175 0.35994 0  0.199997 0.360086 0  0.239816 0.359936 0  0.279804 0.359862 0  0.319855 0.359871 0  0.359906 0.359906 0  0.399941 0.35994 0  0.439962 0.359964 0  0.479975 0.359979 0  0.5199820000000001 0.359989 0  0.559987 0.359994 0  0.59999 0.359997 0  0.639993 0.359998 0  0.679994 0.359999 0  0.7199950000000001 0.36 0  0.759996 0.36 0  0.799997 0.36 0  0.839997 0.36 0  0.8799979999999999 0.36 0  0
[...]
<PointData  Scalars="f_10391-0"> 
<DataArray  type="Float64"  Name="f_10391-0"  format="ascii">1.8644508834080285e-02  1.9177965970384188e-02  2.0094486999480750e-02  1.9152344393650166e-02  1.9417914890415118e-02  2.1157656173749317e-02  1.7640578376901583e-02  1.9166186154838609e-02  1.4126972869592639e-02  1.4798900040934745e-02  1.0408399022841562e-02  1.0643139630294776e-02  7.2109627587493173e-03  7.2558207156309604e-03  4.7588613929501625e-03  4.7321598006793558e-03  3.0121948665401601e-03  2.9698115086271796e-03  1.8343587879591577e-03  1.7974680597529057e-03  1.0757753880313045e-03  1.0492341325677433e-03  6.0740747422601167e-04  5.9007692322836651e-04  3.2987810199145838e-04  3.1922798752720606e-04  1.7209807463237735e-04  1.6584460841850954e-04  8.6117896652561718e-05  8.2589145809986513e-05  4.1266557120660905e-05  3.9347886733807043e-05  1.8903281806364514e-05  1.7898470512294406e-05  8.2623281332592505e-06  7.7568793063168847e-06  3.4389103110575627e-06  3.1950888424231765e-06  1.3599499779990282e-06  1.2474563739249233e-06  5.0968801001135256e-07  4.6018369588767242e-07  1.8049488411364591e-07  1.5978014409849284e-07  6.0176807021509010e-08  5.1954710700856075e-08  1.8801930455985721e-08  1.5716825105051258e-08  5.4719537368887425e-09  4.3818149602480040e-09  1.4708205504590727e-09  1.1094578501240692e-09  3.6048058795600064e-10  2.4873863133874173e-10  7.8852962099767063e-11  4.6842772342509074e-11  1.4765713203741915e-11  6.3556959609110549e-12  2.1272500746390030e-12  1.3217962748089571e-13  1.3631602174020873e-13  -2.7944440750566521e-13  -4.5698391739296348e-14  -1.1748671816612505e-13  -2.2984346178008540e-14  -3.1562184288884705e-14  -6.2982888335609909e-15  -6.2636675059944467e-15  -1.2442167962394179e-15  -8.4474031494731123e-16  -1.6973659658495305e-16  -2.6393041151959806e-17  -8.0668144879056583e-18  2.5554187983242603e-17  3.6267869882656355e-18  9.2931293273722081e-18  1.3813028221989562e-18  1.9493967940774828e-18  2.8404400260148799e-19  2.5610575438115760e-19  3.6306104495372596e-20  7.9199996101651625e-21  1.2340804462754807e-21  -6.1713311710032418e-21  -7.3960736063268068e-22  -1.9300847016199628e-21  -2.2372119032121423e-22  -3.2257087300448516e-22  -3.5333004584718113e-23  -2.6563789741773743e-23  -2.6691679961685552e-24  2.3294679710665332e-24  2.5377277893295391e-25  1.2470982383377463e-24  1.1893155062693455e-25  2.2674004412026562e-25  1.9804508911329669e-26  2.0277392474879321e-26  1.5595104886835520e-27  -8.3005641699010747e-28  -9.0243828801692911e-29  -6.0632307896953906e-28  -4.7218830722657578e-29  -1.0234393241717314e-28  -7.0625918841439678e-30  -7.6159458144700743e-30  -4.4112800539457674e-31  4.9126090180715397e-31  3.8679781950976715e-32  2.1690455231065844e-31  1.2822626400491097e-32  2.8036097921038005e-32  1.4135664854455045e-33  1.1233950804008978e-33  3.6805820573988173e-35  -2.3306136547374203e-34  -1.2014911673366520e-35  -4.8317519022572153e-35  -1.9113240955597752e-36  -3.6072657598202373e-36  -2.1936783774217582e-37  2.4331930067542673e-37  2.1085780776065686e-02  1.9321461597995349e-02  2.4738974996583514e-02  2.3075049724690027e-02  1.6450354335933833e-02  1.1109956092574562e-02  7.2607848626564716e-03  4.5940451518359411e-03  2.8287027729084571e-03  1.6925734759366154e-03  9.8098365821475673e-04  5.4895377618441733e-04  2.9574146383810749e-04  1.5300082846736882e-04  7.5831628215297572e-05  3.5922442532148627e-05  1.6226207052579977e-05  6.9710518615621425e-06  2.8404112253439787e-06  1.0940628924361251e-06  3.9675835093272823e-07  1.3479135246602126e-07  4.2609281621493903e-08  1.2412766323557340e-08  3.2828742088897348e-09  7.6804890293387854e-10  1.5052280787109629e-10  2.1020372998361101e-11  2.8326389477787781e-13  -1.0931403850059268e-12  -4.7036104612453597e-13  -1.3096158185083757e-13  -2.6883429528054689e-14  -3.6780420766432877e-15  -6.7788014881018341e-17  1.4392223581945981e-16  5.2360780814265539e-17  1.1348074091577902e-17  1.5411537294124275e-18  4.2360008570910423e-20  -4.3933643580050859e-20  -1.4225680947604187e-20  -2.5086961420626467e-21  -2.2214236416036019e-22  1.8851152199423672e-23  1.1250462830225884e-23  2.2115719893520299e-24  2.1993996101450003e-25  -6.2148835120151256e-27  -6.6451500967337779e-27  -1.2500357277745037e-27  -1.0743595098800025e-28  4.9886726972839647e-30  3.0285983436189782e-30  4.4684183410830922e-31  2.2953591214596819e-32  -3.7133166452295850e-33  -9.4702571020405393e-34  -8.6703005037650418e-35  8.6505592522907653e-37  2.5894863999078979e-36  1.8994001621577834e-02  1.7447921015606715e-02  2.2966325283358471e-02  2.2465727570640453e-02  1.6571738732195980e-02  1.1052470897727842e-02  6.8472228680050160e-03  4.1710503781803845e-03  2.5245136768276806e-03  1.4999107320767451e-03  8.6668467850662908e-04  4.8410698255410724e-04  2.6032486992340451e-04  1.3433595289926253e-04  6.6337299069979690e-05  3.1267299182925183e-05  1.4028755337829144e-05  5.9741455418201998e-06  2.4067292338369556e-06  9.1353315985715152e-07  3.2510864560661798e-07  1.0775435356126699e-07  3.2952705476912325e-08  9.1661257094551156e-09  2.2625306189154330e-09  4.7118232808793423e-10  7.1754754993754162e-11  2.4390363191896903e-12  -3.4161746815990101e-12  -1.6285992789200602e-12  -4.8468986109841187e-13  -1.0567791045188690e-13  -1.5414572728839326e-14  -3.7340793603028440e-16  6.3814244594843584e-16  2.4796426289145306e-16  5.6855988652168326e-17  8.1515725410817506e-18  2.3490757844848043e-19  -2.5984052977631751e-19  -8.8904737979727521e-20  -1.6615123894435264e-20  -1.5747544108273948e-21  1.3291383371094078e-22  8.7054396901193503e-23  1.8341657075166283e-23  1.9830203502198779e-24  -4.2993482903081055e-26  -6.3459129985398057e-26  -1.3055418737481342e-26  -1.2534097284629035e-27  4.4533312813227755e-29  3.6584471219850240e-29  6.0551892586142892e-30  3.7972993650628857e-31  -4.8392777285934434e-32  -1.5123861736717613e-32  -1.6400316242061761e-33  -1.0631307077651164e-35  2.3737175103889314e-35  7.2375727145331030e-36  1.4533147079090375e-02  1.3846796946336904e-02  1.6231411528670938e-02  1.6440897755493129e-02  1.4379208351111231e-02  1.0490297019088664e-02  5.4164471439516358e-03  3.2847389488995823e-03  2.0223174705475289e-03  1.2198926064111088e-03  7.1226043177230252e-04  4.0039656835947886e-04  2.1600190841515880e-04  1.1153419780956621e-04  5.4986624560247709e-05  2.5815535180422649e-05  1.1509627118206010e-05  4.8573538734475249e-06  1.9329305690913622e-06  7.2178147039792150e-07  2.5132167518557257e-07  8.0875799457204643e-08  2.3732734081787655e-08  6.2087568975058989e-09  1.3844933312501830e-09  2.3358272549186359e-10  1.4708148118173485e-11  -9.0455076812679556e-12  -5.0519248646733215e-12  -1.6381371074104319e-12  -3.8614182200651536e-13  -6.2196852651994436e-14  -2.8328532089868877e-15  2.3183582224667444e-15  1.0201905286611662e-15  2.5333510081668471e-16  3.9442601280989365e-17  1.5666998585525542e-18  -1.2643994252740831e-18  -4.7431826388403263e-19  -9.5018170652854282e-20  -9.7263549854051152e-21  7.8890313259392751e-22  5.7755577020592632e-22  1.3004307455279956e-22  1.5043706522637056e-23  -3.0468771691095241e-25  -5.3149211753557925e-25  -1.1733126861478638e-25  -1.2198491571118531e-26  3.9296323943195795e-28  3.8960173273104384e-28  7.0618736888999635e-29  5.1169706516630443e-30  -5.5193205836037751e-31  -2.0658409435708776e-31  -2.5762006949264140e-32  -5.6452849705074766e-34  3.5743964674566731e-34  6.5397008956329849e-35  8.5073722095001902e-36  1.0327489457717392e-02  1.0084762381511538e-02  1.0823564710657431e-02  1.0820455224014362e-02  1.0307499157818688e-02  2.0643023865032388e-03  2.7352312118307165e-03  1.4226187474881498e-03  9.0475394817914653e-04  5.4282650477718646e-04  3.0976669356457968e-04  1.6848328695033047e-04  8.7311525527588736e-05  4.3045416624825390e-05  2.0145470110991403e-05  8.9243919445475349e-06  3.7289714142322573e-06  1.4630274082644055e-06  5.3572881784180023e-07  1.8157725105344706e-07  5.6252639500141378e-08  1.5602611650236587e-08  3.7228526384437900e-09  6.9143621681130844e-10  6.2049143716111709e-11  -2.0927147280318456e-11  -1.4295889751784885e-11  -5.0917841626429301e-12  -1.3053889039306142e-12  -2.3413961383827683e-13  -1.6796836442586072e-14  7.1558056096138090e-15  3.7558511726349850e-15  1.0259172363014951e-15  1.7645113597945912e-16  1.0162268109166347e-17  -5.2067281039299017e-18  -2.2244211025651003e-18  -4.8345728709609291e-19  -5.4295044044309655e-20  3.8522834591224672e-21  3.3377405247034625e-21  8.0594024659361407e-22  9.9236213841755942e-23  -2.0880104999088990e-24  -3.9298714837172306e-24  -9.2090867962547838e-25  -1.0169104752222709e-25  3.4648238079935888e-27  3.6744236734162556e-27  7.1400781706328830e-28  5.6987521893481104e-29  -5.7888575756544890e-30  -2.4634877180419753e-30  -3.4052726832952699e-31  -1.0973187046010938e-32  4.7509814408420901e-33  9.9827997444023971e-34  7.7744736635696060e-35  -8.9559389233043552e-36  6.9628934897462570e-03  6.9157801564519372e-03  6.9850807338893385e-03  6.6170508148207579e-03  5.2509864221936767e-03  1.4318594869934833e-03  1.8203775519923151e-03  9.9448110463233185e-04  6.4377221323452859e-04  3.9272477104279640e-04  2.2688470678879769e-04  1.2436689853262522e-04  6.4685608677254576e-05  3.1886218512295124e-05  1.4864854742021387e-05  6.5338084069294317e-06  2.6965339467495010e-06  1.0391380708453943e-06  3.7096601615179502e-07  1.2124132627523405e-07  3.5583475176301237e-08  9.0422317986356188e-09  1.8222896990759915e-09  2.0161194497207045e-10  -4.4392475110932509e-11  -3.7606371515732351e-11  -1.4649443086675679e-11  -4.0646564521357785e-12  -8.0252389517166520e-13  -7.5896944671650177e-14  1.9900194799842937e-14  1.2813121997210884e-14  3.8560185650365323e-15  7.3185856187182788e-16  5.5984553898784645e-17  -1.9234917332209396e-17  -9.5923160469544656e-18  -2.2763183684814872e-18  -2.8344786687007597e-19  1.5559626659340615e-20  1.7469733849624084e-20  4.5622745897889694e-21  6.0357732002510597e-22  -1.0990905532606065e-23  -2.6017836964672628e-23  -6.5054886180291504e-24  -7.6449184747376506e-25  2.6785749363064303e-26  3.0843834854153766e-26  6.3854983714258122e-27  5.4814017721880866e-28  -5.6174200172913025e-29  -2.6085081440156036e-29  -3.8818970175376962e-30  -1.4383164191080713e-31  5.8999845561988977e-32  1.3533492854683241e-32  1.1478766579409492e-33  -6.3761610607024238e-35  -6.0119562390468335e-35  4.5513451548066415e-03  4.5801424357254312e-03  4.4185662561446373e-03  4.0263023367385770e-03  3.1944339922879341e-03  2.6794345952732886e-03  2.0399466408118471e-03  1.4342672482715486e-03  1.0122128696805348e-03  6.9066050896012270e-04  4.4826262885740278e-04  2.7544472264621843e-04  1.6020217944861067e-04  8.8192737299786354e-05  4.5923257400238216e-05  2.2581597873731039e-05  1.0458623953301631e-05  4.5455326468934529e-06  1.8441985334940825e-06  6.9319807243716385e-07  2.3868357865872738e-07  7.3897037329677219e-08  1.9867697871670541e-08  4.2720598007170475e-09  5.3022290156215752e-10  -9.5562796139972998e-11  -9.4890161422967217e-11  -3.9752481654773945e-11  -1.1790922905629738e-11  -2.5118192220652440e-12  -2.7746766390830366e-13  5.5303045463414852e-14  4.2467305172249748e-14  1.3908407912323350e-14  2.8784404761368336e-15  2.6787062341220462e-16  -6.8549604144241986e-17  -4.0145589850802881e-17  -1.0430315372000755e-17  -1.4566537364578342e-18  4.6125866736278003e-20  8.6322723427477800e-20  2.4879131343003728e-20  3.6455029602835801e-21  -1.1310680822508377e-23  -1.5650736641542048e-22  -4.3106844940332637e-23  -5.5842635112408306e-24  1.3488049614791521e-25  2.3194638286437130e-25  5.2363269569039786e-26  4.9462428645166017e-27  -4.7522292419392459e-28  -2.4994639567878805e-28  -4.0136243194593090e-29  -1.6438650688295986e-30  6.8277439982779609e-31  1.6905042715356178e-31  1.5422227519827617e-32  -9.2883750938796431e-34  -4.6954200675040199e-34  -1.1530955125608545e-34  2.9990459174381134e-03  3.0473076394916840e-03  2.8498549001748099e-03  2.5503110524120664e-03  2.0661998643164035e-03  1.4842942562895648e-03  1.0530144640389244e-03  7.2924841730514947e-04  4.9039525697667347e-04  3.1616642514008188e-04  1.9395929389938115e-04  1.1279573979924577e-04  6.2037838671209766e-05  3.2200022498044467e-05  1.5729543285710376e-05  7.2050859490395120e-06  3.0790226169587807e-06  1.2185338307283638e-06  4.4162638281343419e-07  1.4390737561231808e-07  4.0723612266481618e-08  9.2207259394499298e-09  1.2072010865253503e-09  -2.2726030630081597e-10  -2.3879970770885942e-10  -1.0567603687938313e-10  -3.3189694072373717e-11  -7.5391321374365260e-12  -9.2341565224541755e-13  1.6029480088563630e-13  1.4171995539488942e-13  5.0200827523655650e-14  1.1323342087303284e-14  1.2632665013093840e-15  -2.3105893908160502e-16  -1.6736382080541697e-16  -4.8458750696740853e-17  -7.8308849010231230e-18  -4.8376163443537409e-20  4.0201545204737893e-19  1.3462679895913953e-19  2.3020845891588785e-20  7.1032426566019348e-22  -8.3962639295105496e-22  -2.7505365586711722e-22  -4.2021912072656186e-23  -3.3179157922354231e-25  1.5437527332083540e-24  4.0766929108096362e-25  4.6052996000625435e-26  -2.8605264533343016e-27  -2.1684335990390419e-27  -3.9780206376275440e-28  -2.1678632253106685e-29  6.7904528748839726e-30  1.9666245750016637e-30  2.0865495999570237e-31  -9.2610762360264882e-33  -6.6077512577613909e-33  -9.4874309135225614e-34  -4.1419496869788463e-35  2.1505657963776592e-03  2.2031098892617658e-03  2.0167919704961860e-03  1.7908626683737783e-03  1.4748834641413408e-03  1.1177886169760857e-03  8.0743351566034795e-04  5.6007709280451578e-04  3.7407498780118309e-04  2.3943922977919850e-04  1.4606428404357111e-04  8.4534682578258944e-05  4.6241841568233429e-05  2.3822943708938756e-05  1.1511786140290610e-05  5.1905821719330514e-06  2.1679445545094925e-06  8.2970596156550291e-07  2.8580062250843043e-07  8.5695887588011743e-08  2.0684754942328198e-08  2.9814320096257965e-09  -4.8914021236323323e-10  -5.9760525408247754e-10  -2.8514732331477503e-10  -9.6401930770108873e-11  -2.3910982669475824e-11  -3.4790366293336184e-12  3.5562937766656666e-13  4.5863603183915534e-13  1.8324926390636651e-13  4.6694058016669220e-14  6.6964126019487395e-15  -5.0007180810314257e-16  -6.5778180793285851e-16  -2.2545345149991460e-16  -4.4391725786180463e-17  -2.7440207050058146e-18  1.5915059787828974e-18  7.0082187661355188e-19  1.4874896714610755e-19  1.2064954952382284e-20  -3.5645982225035693e-21  -1.6509397049715502e-21  -3.2147288730599219e-22  -1.8921362848610199e-23  8.3432259892061429e-24  2.9905008247429820e-24  4.4737054996951525e-25  -1.3026415794631292e-29  -1.6112613076417674e-26  -3.7931738793309634e-27  -3.3094132052417565e-28  4.7579580107648021e-29  2.0318829165140105e-29  2.8367087979771992e-30  3.8882865630965863e-33  -7.4944578381093881e-32  -1.4251152398126938e-32  -7.6862846734220163e-34  3.6452283119114008e-34  1.8871216379927197e-03  1.9654197396354457e-03  1.7561136991780771e-03  1.5545262573609373e-03  1.2873728190483217e-03  9.9080322929105940e-04  7.2084998380545753e-04  5.0078630565219878e-04  3.3361083306081583e-04  2.1264947366863776e-04  1.2911665090714784e-04  7.4335081340614934e-05  4.0403497166395230e-05  2.0641929101435776e-05  9.8623327549822376e-06  4.3775031039998664e-06  1.7879669899095028e-06  6.6202063203615101e-07  2.1637453314774076e-07  5.8975860255542376e-08  1.1261105224586454e-08  8.3567953539104679e-12  -1.2883767867718216e-09  -7.5796141651612035e-10  -2.9465945338458342e-10  -8.5146494627390571e-11  -1.6603282833409484e-11  -5.8088450034256083e-13  1.2051344028057537e-12  6.3292958160640637e-13  1.9618873706572866e-13  3.8438612655502602e-14  1.8461646255373476e-15  -2.0389160683653977e-15  -9.6729222625975582e-16  -2.4637190779559254e-16  -3.1882491698987821e-17  3.5092830799587065e-18  3.1741018070370114e-18  9.0389339107791857e-19  1.2919369734632994e-19  -5.8992750179323190e-21  -8.4681827619736785e-21  -2.2996921110049275e-21  -2.8044036126329336e-22  2.4257118034773709e-23  1.9033806810199807e-23  4.1042487099789716e-24  2.9872238717990330e-25  -8.4882257867418327e-26  -3.2120585505567290e-26  -4.5896242612973245e-27  5.5849078537612673e-29  1.6616715052721450e-28  3.4475194882077900e-29  2.1859905654317211e-30  -5.6695022582314387e-31  -1.7446994817683372e-31  -1.8397279238592181e-32  1.1065110241660121e-33  1.1553370743271614e-33  </DataArray> 
</PointData> 
</Piece>
</UnstructuredGrid>
</VTKFile>