<?xml version="1.0"?>
<VTKFile type="UnstructuredGrid"  version="0.1"  >
<UnstructuredGrid>
<Piece  NumberOfPoints="670" NumberOfCells="1192">
<Points>
<DataArray  type="Float64"  NumberOfComponents="3"  format="ascii">0 0 0  0.04 -1.31357e-10 0  0.0400579 0.0400582 0  0 0.04 0  0.08 -2.62713e-10 0  0.080123 0.0401093 0  0.12 -3.9407e-10 0  0.120183 0.040127 0  0.16 -5.25427e-10 0  0.160176 0.0400597 0  0.2 -6.56784e-10 0  0.199997 0.0399142 0  0.24 -7.8814e-10 0  0.239816 0.0400642 0  0.28 -9.19497e-10 0  0.279804 0.0401377 0  0.32 -1.05085e-09 0  0.319855 0.0401297 0  0.36 -1.18221e-09 0  0.359906 0.0400945 0  0.4 -1.31357e-09 0  0.399941 0.0400609 0  0.44 -1.44492e-09 0  0.439962 0.0400367 0  0.48 -1.57628e-09 0  0.479975 0.0400214 0  0.52 -1.70764e-09 0  0.519983 0.0400122 0  0.5600000000000001 -1.83899e-09 0  0.559987 0.0400069 0  0.6 -1.97035e-09 0  0.59999 0.040004 0  0.64 -2.10171e-09 0  0.639993 0.0400023 0  0.68 -2.23306e-09 0  0.679994 0.0400013 0  0.72 -2.36442e-09 0  0.7199950000000001 0.0400008 0  0.76 -2.49578e-09 0  0.759996 0.0400005 0  0.8 -2.62713e-09 0  0.799997 0.0400002 0  0.84 -2.75849e-09 0  0.839997 0.0400001 0  0.88 -2.88985e-09 0  0.8799979999999999 0.04 0  0.92 -3.0212e-09 0  0.919999 0.0399999 0  0.96 -3.15256e-09 0  0.959999 0.0399998 0  1 -3.28392e-09 0  1 0.0399998 0  1.04 -3.41527e-09 0  1.04 0.0399998 0  1.08 -3.54663e-09 0  1.08 0.0399998 0  1.12 -3.67799e-09 0  1.12 0.0399998 0  1.16 -3.80934e-09 0  1.16 0.0399999 0  1.2 -3.9407e-09 0  1.2 0.04 0  1.24 -4.07206e-09 0  1.24 0.04 0  1.28 -4.20341e-09 0  1.28 0.0400001 0  1.32 -4.33477e-09 0  1.32 0.0400001 0  1.36 -4.46613e-09 0  1.36 0.04 0  1.4 -4.59748e-09 0  1.4 0.04 0  1.44 -4.72884e-09 0  1.44 0.04 0  1.48 -4.8602e-09 0  1.48 0.04 0  1.52 -4.99156e-09 0  1.52 0.04 0  1.56 -5.12291e-09 0  1.56 0.04 0  1.6 -5.25427e-09 0  1.6 0.0400001 0  1.64 -5.38563e-09 0  1.64 0.0400001 0  1.68 -5.51698e-09 0  1.68 0.04 0  1.72 -5.64834e-09 0  1.72 0.04 0  1.76 -5.7797e-09 0  1.76 0.04 0  1.8 -5.91105e-09 0  1.8 0.04 0  1.84 -6.04241e-09 0  1.84 0.04 0  1.88 -6.17377e-09 0  1.88 0.0400001 0  1.92 -6.30512e-09 0  1.92 0.0400001 0  1.96 -6.43648e-09 0  1.96 0.0400001 0  2 -6.56784e-09 0  2 0.0400001 0  2.04 -6.69919e-09 0  2.04 0.0400001 0  2.08 -6.83055e-09 0  2.08 0.04 0  2.12 -6.96191e-09 0  2.12 0.04 0  2.16 -7.09326e-09 0  2.16 0.0400001 0  2.2 -7.22462e-09 0  2.2 0.04 0  2.24 -7.35598e-09 0  2.24 0.04 0  2.28 -7.48733e-09 0  2.28 0.0399999 0  2.32 -7.618690000000001e-09 0  2.32 0.04 0  2.36 -7.750049999999999e-09 0  2.36 0.04 0  2.4 -7.8814e-09 0  2.4 0.04 0  0.0401088 0.0801235 0  0 0.08 0  0.0802509 0.0802518 0  0.120434 0.0803392 0  0.160522 0.0801977 0  0.199995 0.0795328 0  0.239464 0.0802049 0  0.279544 0.08035689999999999 0  0.319711 0.0802867 0  0.359828 0.08018740000000001 0  0.399896 0.0801123 0  0.439933 0.0800646 0  0.479955 0.0800365 0  0.519968 0.08002049999999999 0  0.559976 0.0800116 0  0.599982 0.0800066 0  0.6399860000000001 0.0800039 0  0.679989 0.0800023 0  0.719991 0.0800014 0  0.759992 0.0800008 0  0.799994 0.0800004 0  0.839995 0.08000019999999999 0  0.879996 0.0799999 0  0.919997 0.07999970000000001 0  0.959999 0.0799996 0  1 0.0799995 0  1.04 0.0799995 0  1.08 0.0799996 0  1.12 0.07999970000000001 0  1.16 0.0799998 0  1.2 0.08 0  1.24 0.0800001 0  1.28 0.0800001 0  1.32 0.0800001 0  1.36 0.08 0  1.4 0.0799999 0  1.44 0.0799999 0  1.48 0.0799999 0  1.52 0.0799999 0  1.56 0.08 0  1.6 0.0800001 0  1.64 0.0800001 0  1.68 0.08 0  1.72 0.0799999 0  1.76 0.0799999 0  1.8 0.0799999 0  1.84 0.0799999 0  1.88 0.08 0  1.92 0.0800001 0  1.96 0.0800001 0  2 0.0800001 0  2.04 0.08 0  2.08 0.0799999 0  2.12 0.0799999 0  2.16 0.08 0  2.2 0.08 0  2.24 0.0799999 0  2.28 0.0799998 0  2.32 0.0799999 0  2.36 0.0799999 0  2.4 0.08 0  0.0401262 0.120184 0  0 0.12 0  0.0803378 0.120435 0  0.120779 0.12078 0  0.161485 0.120859 0  0.199996 0.117814 0  0.238503 0.120866 0  0.279195 0.120798 0  0.319616 0.120473 0  0.359799 0.120256 0  0.39988 0.120136 0  0.439921 0.120073 0  0.479944 0.120039 0  0.519958 0.120022 0  0.5599690000000001 0.120012 0  0.599976 0.120007 0  0.639981 0.120004 0  0.679985 0.120002 0  0.719987 0.120002 0  0.7599900000000001 0.120001 0  0.799991 0.12 0  0.839993 0.12 0  0.879995 0.12 0  0.919996 0.12 0  0.959998 0.119999 0  1 0.119999 0  1.04 0.119999 0  1.08 0.119999 0  1.12 0.12 0  1.16 0.12 0  1.2 0.12 0  1.24 0.12 0  1.28 0.12 0  1.32 0.12 0  1.36 0.12 0  1.4 0.12 0  1.44 0.12 0  1.48 0.12 0  1.52 0.12 0  1.56 0.12 0  1.6 0.12 0  1.64 0.12 0  1.68 0.12 0  1.72 0.12 0  1.76 0.12 0  1.8 0.12 0  1.84 0.12 0  1.88 0.12 0  1.92 0.12 0  1.96 0.12 0  2 0.12 0  2.04 0.12 0  2.08 0.12 0  2.12 0.12 0  2.16 0.12 0  2.2 0.12 0  2.24 0.12 0  2.28 0.12 0  2.32 0.12 0  2.36 0.12 0  2.4 0.12 0  0.0400582 0.160177 0  0 0.16 0  0.0801954 0.160525 0  0.120857 0.161488 0  0.164645 0.164645 0  0.2 0.15 0  0.235355 0.164645 0  0.279119 0.161498 0  0.319759 0.16055 0  0.359874 0.160228 0  0.399906 0.160104 0  0.439925 0.160051 0  0.479941 0.160027 0  0.519954 0.160014 0  0.559964 0.160008 0  0.5999719999999999 0.160005 0  0.639978 0.160003 0  0.679982 0.160002 0  0.719985 0.160001 0  0.759988 0.160001 0  0.79999 0.16 0  0.839992 0.16 0  0.8799940000000001 0.16 0  0.919996 0.159999 0  0.959998 0.159999 0  1 0.159999 0  1.04 0.159999 0  1.08 0.159999 0  1.12 0.16 0  1.16 0.16 0  1.2 0.16 0  1.24 0.16 0  1.28 0.16 0  1.32 0.16 0  1.36 0.16 0  1.4 0.16 0  1.44 0.16 0  1.48 0.16 0  1.52 0.16 0  1.56 0.16 0  1.6 0.16 0  1.64 0.16 0  1.68 0.16 0  1.72 0.16 0  1.76 0.16 0  1.8 0.16 0  1.84 0.16 0  1.88 0.16 0  1.92 0.16 0  1.96 0.16 0  2 0.16 0  2.04 0.16 0  2.08 0.16 0  2.12 0.16 0  2.16 0.16 0  2.2 0.16 0  2.24 0.16 0  2.28 0.16 0  2.32 0.16 0  2.36 0.16 0  2.4 0.16 0  0.0399111 0.2 0  0 0.2 0  0.0795281 0.2 0  0.117811 0.2 0  0.15 0.2 0  0.282167 0.2 0  0.25 0.2 0  0.320429 0.2 0  0.36003 0.200001 0  0.399944 0.200001 0  0.439934 0.200001 0  0.479942 0.200001 0  0.519953 0.200001 0  0.559963 0.200001 0  0.59997 0.200001 0  0.639976 0.200001 0  0.6799809999999999 0.200001 0  0.719984 0.200001 0  0.759987 0.200001 0  0.799989 0.2 0  0.839991 0.2 0  0.879993 0.2 0  0.919996 0.199999 0  0.959998 0.199999 0  1 0.199999 0  1.04 0.199999 0  1.08 0.199999 0  1.12 0.2 0  1.16 0.2 0  1.2 0.2 0  1.24 0.2 0  1.28 0.2 0  1.32 0.2 0  1.36 0.2 0  1.4 0.2 0  1.44 0.2 0  1.48 0.2 0  1.52 0.2 0  1.56 0.2 0  1.6 0.2 0  1.64 0.2 0  1.68 0.2 0  1.72 0.2 0  1.76 0.2 0  1.8 0.2 0  1.84 0.2 0  1.88 0.2 0  1.92 0.2 0  1.96 0.2 0  2 0.2 0  2.04 0.2 0  2.08 0.2 0  2.12 0.2 0  2.16 0.2 0  2.2 0.2 0  2.24 0.2 0  2.28 0.2 0  2.32 0.2 0  2.36 0.2 0  2.4 0.2 0  0.0400582 0.239823 0  0 0.24 0  0.0801953 0.239475 0  0.120857 0.238513 0  0.164645 0.235355 0  0.279119 0.238502 0  0.235355 0.235355 0  0.319759 0.239451 0  0.359873 0.239774 0  0.399905 0.239898 0  0.439925 0.239951 0  0.479941 0.239976 0  0.519954 0.239988 0  0.559964 0.239994 0  0.5999719999999999 0.239997 0  0.639977 0.239999 0  0.679982 0.24 0  0.719985 0.24 0  0.759987 0.24 0  0.79999 0.24 0  0.839992 0.24 0  0.8799940000000001 0.24 0  0.919996 0.239999 0  0.959998 0.239999 0  1 0.239999 0  1.04 0.239999 0  1.08 0.239999 0  1.12 0.24 0  1.16 0.24 0  1.2 0.24 0  1.24 0.24 0  1.28 0.24 0  1.32 0.24 0  1.36 0.24 0  1.4 0.24 0  1.44 0.24 0  1.48 0.24 0  1.52 0.24 0  1.56 0.24 0  1.6 0.24 0  1.64 0.24 0  1.68 0.24 0  1.72 0.24 0  1.76 0.24 0  1.8 0.24 0  1.84 0.24 0  1.88 0.24 0  1.92 0.24 0  1.96 0.24 0  2 0.24 0  2.04 0.24 0  2.08 0.24 0  2.12 0.24 0  2.16 0.24 0  2.2 0.24 0  2.24 0.24 0  2.28 0.24 0  2.32 0.24 0  2.36 0.24 0  2.4 0.24 0  0.0401261 0.279816 0  0 0.28 0  0.0803376 0.279565 0  0.120778 0.27922 0  0.161485 0.279141 0  0.2 0.25 0  0.199996 0.282186 0  0.238503 0.279135 0  0.279195 0.279202 0  0.319616 0.279528 0  0.359799 0.279745 0  0.39988 0.279865 0  0.43992 0.279929 0  0.479944 0.279962 0  0.519958 0.27998 0  0.559968 0.27999 0  0.599976 0.279995 0  0.639981 0.279998 0  0.679984 0.279999 0  0.719987 0.28 0  0.759989 0.28 0  0.799991 0.28 0  0.839993 0.28 0  0.879995 0.28 0  0.919997 0.279999 0  0.959998 0.279999 0  1 0.279999 0  1.04 0.279999 0  1.08 0.28 0  1.12 0.28 0  1.16 0.28 0  1.2 0.28 0  1.24 0.28 0  1.28 0.28 0  1.32 0.28 0  1.36 0.28 0  1.4 0.28 0  1.44 0.28 0  1.48 0.28 0  1.52 0.28 0  1.56 0.28 0  1.6 0.28 0  1.64 0.28 0  1.68 0.28 0  1.72 0.28 0  1.76 0.28 0  1.8 0.28 0  1.84 0.28 0  1.88 0.28 0  1.92 0.28 0  1.96 0.28 0  2 0.28 0  2.04 0.28 0  2.08 0.28 0  2.12 0.28 0  2.16 0.28 0  2.2 0.28 0  2.24 0.28 0  2.28 0.28 0  2.32 0.28 0  2.36 0.28 0  2.4 0.28 0  0.0401086 0.319877 0  0 0.32 0  0.08025060000000001 0.319748 0  0.120433 0.319661 0  0.160522 0.319802 0  0.199995 0.320467 0  0.239464 0.319795 0  0.279543 0.319643 0  0.31971 0.319714 0  0.359828 0.319813 0  0.399895 0.319889 0  0.439933 0.319937 0  0.479955 0.319965 0  0.519968 0.319981 0  0.559976 0.31999 0  0.599982 0.319995 0  0.6399860000000001 0.319998 0  0.679989 0.319999 0  0.719991 0.32 0  0.759992 0.32 0  0.799994 0.32 0  0.839995 0.32 0  0.879996 0.32 0  0.919998 0.32 0  0.959999 0.32 0  1 0.32 0  1.04 0.32 0  1.08 0.32 0  1.12 0.32 0  1.16 0.32 0  1.2 0.32 0  1.24 0.32 0  1.28 0.32 0  1.32 0.32 0  1.36 0.32 0  1.4 0.32 0  1.44 0.32 0  1.48 0.32 0  1.52 0.32 0  1.56 0.32 0  1.6 0.32 0  1.64 0.32 0  1.68 0.32 0  1.72 0.32 0  1.76 0.32 0  1.8 0.32 0  1.84 0.32 0  1.88 0.32 0  1.92 0.32 0  1.96 0.32 0  2 0.32 0  2.04 0.32 0  2.08 0.32 0  2.12 0.32 0  2.16 0.32 0  2.2 0.32 0  2.24 0.32 0  2.28 0.32 0  2.32 0.32 0  2.36 0.32 0  2.4 0.32 0  0.0400579 0.359942 0  0 0.36 0  0.0801229 0.359891 0  0.120183 0.359873 0  0.160175 0.35994 0  0.199997 0.360086 0  0.239816 0.359936 0  0.279804 0.359862 0  0.319855 0.359871 0  0.359906 0.359906 0  0.399941 0.35994 0  0.439962 0.359964 0  0.479975 0.359979 0  0.5199820000000001 0.359989 0  0.559987 0.359994 0  0.59999 0.359997 0  0.639993 0.359998 0  0.679994 0.359999 0  0.7199950000000001 0.36 0  0.759996 0.36 0  0.799997 0.36 0  0.839997 0.36 0  0.8799979999999999 0.36 0  0
[...]
<PointData  Scalars="f_10391-0"> 
<DataArray  type="Float64"  Name="f_10391-0"  format="ascii">3.1986696049398004e-03  4.0401523895841852e-03  5.2231084857593327e-03  4.0401539244353463e-03  5.0559642462973224e-03  7.0115774482696729e-03  4.6312847064978223e-03  6.3106201242129050e-03  3.0259832010159850e-03  3.7897422178817569e-03  1.5743439370138562e-03  1.8611974211245588e-03  6.7708902407856799e-04  7.6676955936450040e-04  2.4400150056636734e-04  2.6414772078090274e-04  7.3662821962864431e-05  7.5255442598990861e-05  1.8452071156707153e-05  1.7271698190043328e-05  3.7621279320646604e-06  3.0143502005006808e-06  6.0277702363381448e-07  3.3917264666946059e-07  7.0500942670429640e-08  4.1039093613393946e-09  4.7923980045649495e-09  -7.6061184044172968e-09  -8.4880981597400449e-11  -1.7480905283283720e-09  -6.2600835388809364e-11  -2.0252336797859708e-10  -6.7431389013972269e-12  -9.5056600117267603e-12  -2.2859475252319597e-13  7.4484247778067698e-13  1.6799327795239521e-14  1.4169377504757244e-13  1.4510400009382167e-15  6.1088445626446034e-15  -3.9894776903423647e-17  -2.8268829094631658e-16  -4.8402652042062262e-18  -2.1297439918444060e-17  2.4630203617044744e-19  1.4754310863465041e-18  1.0440237601958689e-20  6.9408387845936668e-20  -1.4943032855345647e-21  -7.1768487060442415e-21  2.4286981032577104e-23  5.4010072287966480e-23  4.3388174059990223e-24  2.8407529563824860e-23  -3.9373214100002234e-25  -1.7870808699779042e-24  8.7745882917978454e-27  -3.8986988180690573e-27  1.0026368126087110e-27  7.0646155724260267e-27  -1.0454320161387561e-28  -5.5727044007700210e-28  5.0616138316069547e-30  1.7765722583852085e-29  -9.7982053059774786e-32  8.1133087480408128e-31  -1.0988996751051578e-32  -1.5899924129608301e-31  1.8928377393548701e-33  1.2606228768366599e-32  -1.7576824185333054e-34  -5.4267302419592306e-34  9.5225806716278640e-36  -2.4076687413462232e-36  -8.7274947869169678e-38  2.6795927679183451e-36  -3.5605316129297348e-38  -2.8511589703990740e-37  3.9848697342507553e-39  1.9797769778696168e-38  -2.7585835153609457e-40  -9.2572916203073921e-40  1.4430719714736004e-41  1.7942834870994642e-41  -5.4959042414855938e-43  1.8352472423569294e-42  7.6453770521779144e-45  -2.9164258731506045e-43  1.3570935012195031e-45  2.6850916248627847e-44  -2.0979922005595167e-46  -1.9755651713271506e-45  2.0543041652009254e-47  1.2802572133164647e-46  -1.6500251920930487e-48  -7.5143354606585086e-48  1.2060300025485019e-49  3.7700389520481396e-49  -8.3535958549194897e-51  -1.3780833774329364e-50  5.3686753534520241e-52  1.1468403308931767e-52  -3.1310244923688314e-53  4.3767207730352969e-53  1.6856736702394544e-54  -6.3877480380606624e-54  -8.4661355492423265e-56  6.5266015793395322e-55  3.5668755647566070e-57  -5.5864329580370971e-56  -7.4708809367439898e-59  4.3140303527548887e-57  -5.7578648744597123e-60  -3.1945920858577906e-58  9.5808099574224107e-61  2.3195726175429805e-59  -9.5141248027649549e-62  -1.6320313516115829e-60  1.0237522401610030e-62  1.1410263096885774e-61  -1.7873830242566962e-63  -1.5318702353285204e-62  7.0112306810357142e-03  5.0557193967392987e-03  1.1281079314787093e-02  1.0745000792974777e-02  5.7865764827564900e-03  2.5600070657440244e-03  9.9570492355840535e-04  3.2721062870919352e-04  8.9574532034990208e-05  1.9735246210467538e-05  3.2537383997726846e-06  3.2455790215854059e-07  -4.4653475010067736e-09  -7.8325650258369004e-09  -1.1593320903719661e-09  5.9973531550592950e-12  2.9470376164466751e-11  5.0342269089742689e-12  3.4752930155617870e-13  -5.8344446118325848e-15  -2.5540908055002529e-15  -9.3114595664314914e-17  7.2776720441082184e-18  2.3827373016195632e-19  -3.8377176647431559e-20  1.5661261254385953e-23  1.4960109663339841e-22  -7.4183333897095830e-24  -1.2681834087635434e-25  4.2374154159234202e-26  -2.7434437357618970e-27  3.1481094953136806e-29  1.1329954151562863e-29  -1.1631729164886753e-30  4.4858468466378577e-32  1.0012883225073252e-33  -2.4391085278278977e-34  1.8599415587196821e-35  -1.0149709028286970e-36  4.2931805844366119e-38  -5.9257808544486179e-40  -1.7145151296499043e-40  2.5794687524454335e-41  -2.2547142142848283e-42  1.4713018917309823e-43  -7.6052629430197577e-45  2.7218904784719060e-46  3.9610829276296240e-49  -1.2007576609763489e-48  1.4495110898069864e-49  -1.3133881446216104e-50  1.0415552178547275e-51  -7.4817143711901369e-53  5.0312287708947275e-54  -3.2762566768362056e-55  2.0753055252466457e-56  -1.2632267898598516e-57  7.4816448554290963e-59  -4.4435640908572725e-60  2.5365593097423420e-61  -2.9552554221617616e-62  6.3090685038950005e-03  4.6301527237070823e-03  1.0743180435262609e-02  1.1111304373305342e-02  6.5329674390746896e-03  2.9046713888700895e-03  1.0857956887270089e-03  3.3672064377159489e-04  8.7400977303126836e-05  1.7867096592340046e-05  2.4905627463193082e-06  1.0222468421280413e-07  -5.2056679126035817e-08  -1.4911564200049742e-08  -1.7688539270226075e-09  -8.0829749524222977e-12  2.5955317985264862e-11  2.0172926650700192e-12  -4.2854905097939814e-13  -1.0585658071208035e-13  -8.1705559166231412e-15  7.3928947832459505e-17  4.4789447601156852e-17  5.8898055116960936e-19  -1.7736461614432974e-19  1.2540400174855558e-21  6.8229841113872513e-22  -3.8835664212922421e-23  -1.0895053369020636e-24  2.4689786513280808e-25  -1.2078689986763764e-26  -3.7844834015619376e-28  8.3238642209406255e-29  -4.3634445493327007e-30  1.6427515022410156e-32  1.5092979362283821e-32  -1.4310700659702660e-33  7.7238005801792883e-35  -2.2307354274115319e-36  -6.6681222369182658e-38  1.7035564965467563e-38  -1.7213675013019761e-39  1.3376481860276943e-40  -8.5647237594239492e-42  3.8708592370500226e-43  -3.2531649158001955e-45  -1.4630434178419047e-45  1.8668759851313279e-46  -1.6112099404765071e-47  1.1668017446204518e-48  -7.4352321822129260e-50  4.2558436231792846e-51  -2.2136462824223627e-52  1.0142382887314368e-53  -3.6020758797859766e-55  4.5141108268914880e-57  8.5380854130788753e-58  -1.3272795008166659e-58  1.4135126488357215e-59  -1.3307503308755985e-60  1.9663431301796157e-61  3.7865342279187371e-03  3.0235622767066446e-03  5.7819531451725747e-03  6.5291122511541896e-03  5.0981502002285916e-03  2.7921954165293092e-03  7.6160662542162796e-04  2.2396691480411839e-04  5.4169531629985757e-05  9.0855538678845975e-06  4.3900906420529141e-07  -3.0027208277045059e-07  -1.1125242266863235e-07  -1.9220629233276045e-08  -1.1365722963314123e-09  2.5944246432331379e-10  6.9241660882338114e-11  5.6849992253940470e-12  -2.2070099010824062e-13  -5.1682669466722158e-14  7.0960445776120115e-15  2.1307290863137745e-15  1.5125171885001605e-16  -3.5527301033433897e-18  -7.2525050264784658e-19  2.2776030962331590e-20  3.1973983780483917e-21  -1.9789224652609661e-22  -6.9641960849809360e-24  1.3399094499109643e-24  -3.0483363339140976e-26  -3.8986571545828546e-27  3.3588307635050002e-28  -9.9380199320075248e-30  -3.8557371949865434e-31  7.4402699828518091e-32  -6.1364327177171595e-33  3.0714549686394221e-34  -4.4786522722031810e-37  -1.4883869534952683e-36  1.4973053117708114e-37  -9.1673690892497379e-39  3.9230293183230162e-40  -7.4168812807533767e-42  -7.7868998921271085e-43  1.3240497740993665e-43  -1.3611640428070240e-44  1.1065725705467819e-45  -7.2860744891090803e-47  3.8831788515495144e-48  -1.6026189788565800e-49  3.4956708166107224e-51  2.2542286313169079e-52  -4.1798631093992047e-53  4.2924607099695663e-54  -3.7179466090390815e-55  2.9418235884896511e-56  -2.1760820537355257e-57  1.5394642698228481e-58  -1.1072211289731897e-59  1.4290299150982552e-60  1.8569989698883811e-03  1.5711685814641027e-03  2.5539449201796120e-03  2.8984192712722991e-03  2.7872778970481561e-03  6.3755917764285794e-05  2.0296537268447792e-04  1.3730268245601495e-05  1.5896184912762846e-07  -1.1393461677234747e-06  -4.6946371913408221e-07  -9.8279630623792449e-08  -7.2454150741258902e-09  2.1304947845708060e-09  7.7341143568585629e-10  1.0274188589369772e-10  5.6722054147933852e-13  -1.8632153125285534e-12  -2.5103332485509213e-13  -6.5753292430970226e-15  6.8211729576508111e-16  -1.6781490149203225e-16  -4.3427420931597767e-17  -2.1988506084647246e-18  1.5637208396758661e-19  1.1152884482909828e-20  -9.7964822094146709e-22  -4.2171971434086800e-23  4.8554951904929808e-24  -3.3689507677343718e-26  -1.3741063995116447e-26  1.0823135470808706e-27  -3.8982191387401228e-29  -1.4165797372682839e-30  3.8346560738960853e-31  -3.0559396798904270e-32  8.9084949582788497e-34  5.9793061249963482e-35  -1.0045456048543787e-35  7.6993673537525865e-37  -3.3652760986576424e-38  7.7493808490658860e-41  1.2259132371772241e-40  -1.2503120189959490e-41  8.9026040018354305e-43  -5.6055517290769748e-44  3.3194191608918705e-45  -1.7140059117162357e-46  5.6100823206561838e-48  1.5370262752602894e-49  -4.7333935596303305e-50  5.3453198588258100e-51  -4.7111973684015317e-52  3.6505239112978193e-53  -2.5984409998249035e-54  1.7497121240626261e-55  -1.1396678654500766e-56  7.3610599173964450e-58  -5.1006828181703129e-59  7.0220161880075546e-60  7.6302738144407869e-04  6.7431341152474609e-04  9.9026481211365739e-04  1.0802861710669607e-03  7.5806235281579816e-04  2.4429490931798807e-05  6.4736861723601179e-05  2.5476216745084121e-06  -1.6000493880761842e-06  -9.7858483520707370e-07  -2.5710968635802280e-07  -1.9498162984449325e-08  1.0745566030266796e-08  4.4469444230867479e-09  7.1640691681239420e-10  -1.5362013532418644e-12  -2.4143581792898997e-11  -4.5938536935010580e-12  -2.3523897259127402e-13  4.6440125850551246e-14  8.7271470805032794e-15  4.2705514746187555e-16  -6.2089264128330574e-18  3.3252634008526970e-18  7.9499371664884928e-19  3.0712300341034659e-20  -2.6031606386302415e-21  -6.7549134276099808e-23  1.1038053407645929e-23  -5.1865944434472474e-25  -1.7006723262477790e-26  5.3944478301842188e-27  -3.1763710063262889e-28  -1.0446902940136134e-29  2.3608080119039406e-30  -1.2817826630700244e-31  5.7795530426952519e-34  4.9922334891258715e-34  -5.0859539393803822e-35  2.8861375213898579e-36  -7.4934024403108634e-38  -5.0535462410532272e-39  9.0371644973641554e-40  -7.5688222983208479e-41  4.3780974686642733e-42  -1.8523097161272514e-43  5.2203572183233657e-45  2.9125732935556660e-47  -2.7409258768022635e-47  4.1417430929159712e-48  -4.5915882984919107e-49  4.0826752892478950e-50  -3.0786853321614673e-51  2.0715380815618894e-52  -1.2853851489965978e-53  7.5414047655601408e-55  -4.3159601099996224e-56  2.3779750734755543e-57  -9.7808203828249924e-59  6.8930919329742821e-60  2.6192142201924369e-04  2.4237590116694182e-04  3.2388121148734590e-04  3.3335574985366101e-04  2.2199197429442747e-04  2.0196191152982643e-04  6.3171654495492236e-05  2.4307807343255576e-05  4.1624718198553422e-06  -1.3020064110312310e-06  -1.2811471668196461e-06  -4.4055702713936777e-07  -4.3097911185467182e-08  2.7765172697086347e-08  1.4120506546751632e-08  2.7027908365811467e-09  -6.0613135099190722e-11  -1.5832130857998705e-10  -3.5981793615704343e-11  -2.0190215202042767e-12  7.1161829972362664e-13  1.7536893639623237e-13  1.2630718609076800e-14  -1.1023775043595241e-15  -2.8824319898316755e-16  -2.1601578239437274e-17  -7.5218818697003504e-19  -5.2939335136234578e-20  -1.5889735941365551e-21  6.6203984842387717e-22  1.5312088582714350e-23  -6.2730523805178801e-24  5.7360448642548298e-27  3.6614730733587076e-26  -1.4217480399477212e-27  -8.3279071405590982e-29  1.1099773330225610e-29  -4.8396197578969873e-31  -7.7774381396697177e-33  2.7690845703919108e-33  -2.2796286926287637e-34  1.0678697438529665e-35  -9.4829233526586759e-38  -3.9511092389322275e-38  5.1110921388302156e-39  -4.1055363339859487e-40  2.2556054353389675e-41  -6.4549095639693341e-43  -2.5266018741391084e-44  5.5526531712995513e-45  -5.4670268346743644e-46  4.3446402144672469e-47  -3.1841936737610954e-48  2.2126139486724607e-49  -1.3892835530427894e-50  7.3505230132561166e-52  -2.9210440456184824e-53  2.8888983109063505e-55  1.1676914817715646e-55  -1.8187720575978666e-56  2.0358102958336748e-57  -3.2213961821858854e-58  7.4387223208603447e-05  7.3028749159817209e-05  8.8261628486395482e-05  8.6063608061528462e-05  5.3384625406537500e-05  1.3458401264200028e-05  2.4777758390902962e-06  -1.3052300883188487e-06  -1.3211223686051872e-06  -5.5288916811581346e-07  -8.0773818976047349e-08  4.0195074054421967e-08  2.7312750620438727e-08  6.3661010274001606e-09  -2.4748417640523458e-10  -5.7824436841568204e-10  -1.5283142078230728e-10  -8.1786551029319920e-12  5.1660157911241758e-12  1.4102095882419381e-12  1.0092589818361367e-13  -2.0015725155767379e-14  -5.1138004961869969e-15  -3.4630889426797953e-16  2.0697842365259321e-17  4.5841525002694244e-18  3.4811567872432292e-19  4.8049944315911754e-20  5.9534407818455876e-21  8.1443795945125525e-23  -3.3962924703547466e-23  -4.0549496794556038e-25  1.5071070330299760e-25  -4.8509808314470782e-27  -3.4588395874164810e-28  4.5613728949591173e-29  -2.1056613058215368e-30  -3.7964825138629764e-32  1.4331296700062493e-32  -1.1815344804627335e-33  4.8367298355653209e-35  7.6679384933453242e-37  -3.3564793735811831e-37  3.3642575151583309e-38  -2.1549022014583404e-39  8.4962228901545263e-41  1.0516307181134463e-42  -5.8604612568031259e-43  6.4300730238482210e-44  -4.7559752534243633e-45  2.7576416021865815e-46  -1.2831554739881275e-47  4.1862747088888027e-49  1.8252578610325473e-51  -2.3430583051066266e-51  3.4190337511492265e-52  -3.6467453536477532e-53  3.1801453482049739e-54  -2.3989214696961528e-55  1.6700409824146918e-56  -2.1618194333526304e-57  1.7372859884836162e-05  1.8698060694785314e-05  1.9718339953747563e-05  1.7720242157618945e-05  8.7863572388211751e-06  -2.1322514347984755e-07  -1.8222861697783765e-06  -1.3456003451808525e-06  -5.4879410594347024e-07  -8.5314604737574651e-08  5.0486683593743317e-08  3.9300918329581283e-08  1.0267503381241121e-08  -9.1737629393144108e-10  -1.4986754593640262e-09  -4.1425037624548131e-10  -1.5843070342782026e-12  2.8785149034337520e-11  7.1778562656005429e-12  1.1833630062499868e-13  -2.8686473793157372e-13  -5.5047853994967255e-14  1.6191456507771389e-16  1.4390948132578940e-15  1.7351286339631060e-16  -6.2512176162571736e-18  -2.9207460963566880e-18  -1.4979265444849400e-19  1.2911351056965531e-20  9.4128034859000401e-22  -6.7374353732666871e-23  -1.9156907089570151e-24  3.7795586473367638e-25  -1.9612566384133743e-26  -6.8396506417905212e-28  2.0576640812682835e-28  -1.1638674183690746e-29  -2.5999168188922971e-31  8.4678729701244617e-32  -6.5636443318247018e-33  1.6977340352258823e-34  1.8457933057765323e-35  -2.6904404606067246e-36  1.9175900712544695e-37  -7.6756122519588089e-39  -1.1159801085698121e-40  5.1008623923281102e-41  -5.3823721173829674e-42  3.9795395342951891e-43  -2.1862713041480090e-44  6.8158138113173200e-46  2.2234124764804725e-47  -5.8133096324505711e-48  6.2055098660176585e-49  -5.1607353736460237e-50  3.6733137516435754e-51  -2.3246840544412747e-52  1.3450115050665936e-53  -7.0390252075330764e-55  2.8600297372811134e-56  -1.2744077903041953e-57  6.0414387767664847e-06  8.2117221640201746e-06  6.3650854462160444e-06  4.8490549476891071e-06  8.4543130172028487e-07  -2.2625633251224191e-06  -1.9403365417980158e-06  -8.7177232230384801e-07  -1.6204783055969609e-07  8.0327071963363507e-08  8.0493107277111761e-08  2.8637577892647659e-08  3.6789451037910389e-10  -4.1459308130901826e-09  -1.6928884490462333e-09  -1.2967478396453941e-10  1.2777911390224141e-10  4.9682562991487067e-11  4.1348188784604310e-12  -2.1091428849039943e-12  -6.9554089029800394e-13  -4.4954215618540628e-14  1.8616665219360554e-14  4.5316886045014978e-15  1.6503680334123052e-16  -8.0063321692854933e-17  -1.2464081544159116e-17  -1.3195175217256284e-19  1.2629067394454195e-19  1.0687032365972921e-20  5.8883054695094456e-23  -1.1872939776033693e-23  4.8127304241500348e-25  -1.0351110044357580e-25  -2.9396353639557516e-27  9.9309186602053954e-28  -4.8017216993642930e-29  -2.5778437954854203e-30  5.1402137876964222e-31  -2.7354815512335739e-32  -3.6798245409748793e-34  1.7390238887732367e-34  -1.5497026203656458e-35  6.7880997956399551e-37  8.5483625746089311e-39  -4.1725662330269349e-39  4.1790477347539363e-40  -2.7760572010988859e-41  1.2127733717282852e-42  -9.6658947080778923e-45  -4.8454575697458505e-45  6.8016156772968359e-46  -6.2567786102949801e-47  4.3666619514523373e-48  -2.3240841886739349e-49  8.6703895287235029e-51  -8.7844455695075027e-53  -2.2882605390060538e-53  3.0507630361512972e-54  -2.8895274369165583e-55  4.0086078196011057e-56  </DataArray> 
</PointData> 
</Piece>
</UnstructuredGrid>
</VTKFile>