<?xml version="1.0"?>
<VTKFile type="UnstructuredGrid"  version="0.1"  >
<UnstructuredGrid>
<Piece  NumberOfPoints="670" NumberOfCells="1192">
<Points>
<DataArray  type="Float64"  NumberOfComponents="3"  format="ascii">0 0 0  0.04 -1.31357e-10 0  0.0400579 0.0400582 0  0 0.04 0  0.08 -2.62713e-10 0  0.080123 0.0401093 0  0.12 -3.9407e-10 0  0.120183 0.040127 0  0.16 -5.25427e-10 0  0.160176 0.0400597 0  0.2 -6.56784e-10 0  0.199997 0.0399142 0  0.24 -7.8814e-10 0  0.239816 0.0400642 0  0.28 -9.19497e-10 0  0.279804 0.0401377 0  0.32 -1.05085e-09 0  0.319855 0.0401297 0  0.36 -1.18221e-09 0  0.359906 0.0400945 0  0.4 -1.31357e-09 0  0.399941 0.0400609 0  0.44 -1.44492e-09 0  0.439962 0.0400367 0  0.48 -1.57628e-09 0  0.479975 0.0400214 0  0.52 -1.70764e-09 0  0.519983 0.0400122 0  0.5600000000000001 -1.83899e-09 0  0.559987 0.0400069 0  0.6 -1.97035e-09 0  0.59999 0.040004 0  0.64 -2.10171e-09 0  0.639993 0.0400023 0  0.68 -2.23306e-09 0  0.679994 0.0400013 0  0.72 -2.36442e-09 0  0.7199950000000001 0.0400008 0  0.76 -2.49578e-09 0  0.759996 0.0400005 0  0.8 -2.62713e-09 0  0.799997 0.0400002 0  0.84 -2.75849e-09 0  0.839997 0.0400001 0  0.88 -2.88985e-09 0  0.8799979999999999 0.04 0  0.92 -3.0212e-09 0  0.919999 0.0399999 0  0.96 -3.15256e-09 0  0.959999 0.0399998 0  1 -3.28392e-09 0  1 0.0399998 0  1.04 -3.41527e-09 0  1.04 0.0399998 0  1.08 -3.54663e-09 0  1.08 0.0399998 0  1.12 -3.67799e-09 0  1.12 0.0399998 0  1.16 -3.80934e-09 0  1.16 0.0399999 0  1.2 -3.9407e-09 0  1.2 0.04 0  1.24 -4.07206e-09 0  1.24 0.04 0  1.28 -4.20341e-09 0  1.28 0.0400001 0  1.32 -4.33477e-09 0  1.32 0.0400001 0  1.36 -4.46613e-09 0  1.36 0.04 0  1.4 -4.59748e-09 0  1.4 0.04 0  1.44 -4.72884e-09 0  1.44 0.04 0  1.48 -4.8602e-09 0  1.48 0.04 0  1.52 -4.99156e-09 0  1.52 0.04 0  1.56 -5.12291e-09 0  1.56 0.04 0  1.6 -5.25427e-09 0  1.6 0.0400001 0  1.64 -5.38563e-09 0  1.64 0.0400001 0  1.68 -5.51698e-09 0  1.68 0.04 0  1.72 -5.64834e-09 0  1.72 0.04 0  1.76 -5.7797e-09 0  1.76 0.04 0  1.8 -5.91105e-09 0  1.8 0.04 0  1.84 -6.04241e-09 0  1.84 0.04 0  1.88 -6.17377e-09 0  1.88 0.0400001 0  1.92 -6.30512e-09 0  1.92 0.0400001 0  1.96 -6.43648e-09 0  1.96 0.0400001 0  2 -6.56784e-09 0  2 0.0400001 0  2.04 -6.69919e-09 0  2.04 0.0400001 0  2.08 -6.83055e-09 0  2.08 0.04 0  2.12 -6.96191e-09 0  2.12 0.04 0  2.16 -7.09326e-09 0  2.16 0.0400001 0  2.2 -7.22462e-09 0  2.2 0.04 0  2.24 -7.35598e-09 0  2.24 0.04 0  2.28 -7.48733e-09 0  2.28 0.0399999 0  2.32 -7.618690000000001e-09 0  2.32 0.04 0  2.36 -7.750049999999999e-09 0  2.36 0.04 0  2.4 -7.8814e-09 0  2.4 0.04 0  0.0401088 0.0801235 0  0 0.08 0  0.0802509 0.0802518 0  0.120434 0.0803392 0  0.160522 0.0801977 0  0.199995 0.0795328 0  0.239464 0.0802049 0  0.279544 0.08035689999999999 0  0.319711 0.0802867 0  0.359828 0.08018740000000001 0  0.399896 0.0801123 0  0.439933 0.0800646 0  0.479955 0.0800365 0  0.519968 0.08002049999999999 0  0.559976 0.0800116 0  0.599982 0.0800066 0  0.6399860000000001 0.0800039 0  0.679989 0.0800023 0  0.719991 0.0800014 0  0.759992 0.0800008 0  0.799994 0.0800004 0  0.839995 0.08000019999999999 0  0.879996 0.0799999 0  0.919997 0.07999970000000001 0  0.959999 0.0799996 0  1 0.0799995 0  1.04 0.0799995 0  1.08 0.0799996 0  1.12 0.07999970000000001 0  1.16 0.0799998 0  1.2 0.08 0  1.24 0.0800001 0  1.28 0.0800001 0  1.32 0.0800001 0  1.36 0.08 0  1.4 0.0799999 0  1.44 0.0799999 0  1.48 0.0799999 0  1.52 0.0799999 0  1.56 0.08 0  1.6 0.0800001 0  1.64 0.0800001 0  1.68 0.08 0  1.72 0.0799999 0  1.76 0.0799999 0  1.8 0.0799999 0  1.84 0.0799999 0  1.88 0.08 0  1.92 0.0800001 0  1.96 0.0800001 0  2 0.0800001 0  2.04 0.08 0  2.08 0.0799999 0  2.12 0.0799999 0  2.16 0.08 0  2.2 0.08 0  2.24 0.0799999 0  2.28 0.0799998 0  2.32 0.0799999 0  2.36 0.0799999 0  2.4 0.08 0  0.0401262 0.120184 0  0 0.12 0  0.0803378 0.120435 0  0.120779 0.12078 0  0.161485 0.120859 0  0.199996 0.117814 0  0.238503 0.120866 0  0.279195 0.120798 0  0.319616 0.120473 0  0.359799 0.120256 0  0.39988 0.120136 0  0.439921 0.120073 0  0.479944 0.120039 0  0.519958 0.120022 0  0.5599690000000001 0.120012 0  0.599976 0.120007 0  0.639981 0.120004 0  0.679985 0.120002 0  0.719987 0.120002 0  0.7599900000000001 0.120001 0  0.799991 0.12 0  0.839993 0.12 0  0.879995 0.12 0  0.919996 0.12 0  0.959998 0.119999 0  1 0.119999 0  1.04 0.119999 0  1.08 0.119999 0  1.12 0.12 0  1.16 0.12 0  1.2 0.12 0  1.24 0.12 0  1.28 0.12 0  1.32 0.12 0  1.36 0.12 0  1.4 0.12 0  1.44 0.12 0  1.48 0.12 0  1.52 0.12 0  1.56 0.12 0  1.6 0.12 0  1.64 0.12 0  1.68 0.12 0  1.72 0.12 0  1.76 0.12 0  1.8 0.12 0  1.84 0.12 0  1.88 0.12 0  1.92 0.12 0  1.96 0.12 0  2 0.12 0  2.04 0.12 0  2.08 0.12 0  2.12 0.12 0  2.16 0.12 0  2.2 0.12 0  2.24 0.12 0  2.28 0.12 0  2.32 0.12 0  2.36 0.12 0  2.4 0.12 0  0.0400582 0.160177 0  0 0.16 0  0.0801954 0.160525 0  0.120857 0.161488 0  0.164645 0.164645 0  0.2 0.15 0  0.235355 0.164645 0  0.279119 0.161498 0  0.319759 0.16055 0  0.359874 0.160228 0  0.399906 0.160104 0  0.439925 0.160051 0  0.479941 0.160027 0  0.519954 0.160014 0  0.559964 0.160008 0  0.5999719999999999 0.160005 0  0.639978 0.160003 0  0.679982 0.160002 0  0.719985 0.160001 0  0.759988 0.160001 0  0.79999 0.16 0  0.839992 0.16 0  0.8799940000000001 0.16 0  0.919996 0.159999 0  0.959998 0.159999 0  1 0.159999 0  1.04 0.159999 0  1.08 0.159999 0  1.12 0.16 0  1.16 0.16 0  1.2 0.16 0  1.24 0.16 0  1.28 0.16 0  1.32 0.16 0  1.36 0.16 0  1.4 0.16 0  1.44 0.16 0  1.48 0.16 0  1.52 0.16 0  1.56 0.16 0  1.6 0.16 0  1.64 0.16 0  1.68 0.16 0  1.72 0.16 0  1.76 0.16 0  1.8 0.16 0  1.84 0.16 0  1.88 0.16 0  1.92 0.16 0  1.96 0.16 0  2 0.16 0  2.04 0.16 0  2.08 0.16 0  2.12 0.16 0  2.16 0.16 0  2.2 0.16 0  2.24 0.16 0  2.28 0.16 0  2.32 0.16 0  2.36 0.16 0  2.4 0.16 0  0.0399111 0.2 0  0 0.2 0  0.0795281 0.2 0  0.117811 0.2 0  0.15 0.2 0  0.282167 0.2 0  0.25 0.2 0  0.320429 0.2 0  0.36003 0.200001 0  0.399944 0.200001 0  0.439934 0.200001 0  0.479942 0.200001 0  0.519953 0.200001 0  0.559963 0.200001 0  0.59997 0.200001 0  0.639976 0.200001 0  0.6799809999999999 0.200001 0  0.719984 0.200001 0  0.759987 0.200001 0  0.799989 0.2 0  0.839991 0.2 0  0.879993 0.2 0  0.919996 0.199999 0  0.959998 0.199999 0  1 0.199999 0  1.04 0.199999 0  1.08 0.199999 0  1.12 0.2 0  1.16 0.2 0  1.2 0.2 0  1.24 0.2 0  1.28 0.2 0  1.32 0.2 0  1.36 0.2 0  1.4 0.2 0  1.44 0.2 0  1.48 0.2 0  1.52 0.2 0  1.56 0.2 0  1.6 0.2 0  1.64 0.2 0  1.68 0.2 0  1.72 0.2 0  1.76 0.2 0  1.8 0.2 0  1.84 0.2 0  1.88 0.2 0  1.92 0.2 0  1.96 0.2 0  2 0.2 0  2.04 0.2 0  2.08 0.2 0  2.12 0.2 0  2.16 0.2 0  2.2 0.2 0  2.24 0.2 0  2.28 0.2 0  2.32 0.2 0  2.36 0.2 0  2.4 0.2 0  0.0400582 0.239823 0  0 0.24 0  0.0801953 0.239475 0  0.120857 0.238513 0  0.164645 0.235355 0  0.279119 0.238502 0  0.235355 0.235355 0  0.319759 0.239451 0  0.359873 0.239774 0  0.399905 0.239898 0  0.439925 0.239951 0  0.479941 0.239976 0  0.519954 0.239988 0  0.559964 0.239994 0  0.5999719999999999 0.239997 0  0.639977 0.239999 0  0.679982 0.24 0  0.719985 0.24 0  0.759987 0.24 0  0.79999 0.24 0  0.839992 0.24 0  0.8799940000000001 0.24 0  0.919996 0.239999 0  0.959998 0.239999 0  1 0.239999 0  1.04 0.239999 0  1.08 0.239999 0  1.12 0.24 0  1.16 0.24 0  1.2 0.24 0  1.24 0.24 0  1.28 0.24 0  1.32 0.24 0  1.36 0.24 0  1.4 0.24 0  1.44 0.24 0  1.48 0.24 0  1.52 0.24 0  1.56 0.24 0  1.6 0.24 0  1.64 0.24 0  1.68 0.24 0  1.72 0.24 0  1.76 0.24 0  1.8 0.24 0  1.84 0.24 0  1.88 0.24 0  1.92 0.24 0  1.96 0.24 0  2 0.24 0  2.04 0.24 0  2.08 0.24 0  2.12 0.24 0  2.16 0.24 0  2.2 0.24 0  2.24 0.24 0  2.28 0.24 0  2.32 0.24 0  2.36 0.24 0  2.4 0.24 0  0.0401261 0.279816 0  0 0.28 0  0.0803376 0.279565 0  0.120778 0.27922 0  0.161485 0.279141 0  0.2 0.25 0  0.199996 0.282186 0  0.238503 0.279135 0  0.279195 0.279202 0  0.319616 0.279528 0  0.359799 0.279745 0  0.39988 0.279865 0  0.43992 0.279929 0  0.479944 0.279962 0  0.519958 0.27998 0  0.559968 0.27999 0  0.599976 0.279995 0  0.639981 0.279998 0  0.679984 0.279999 0  0.719987 0.28 0  0.759989 0.28 0  0.799991 0.28 0  0.839993 0.28 0  0.879995 0.28 0  0.919997 0.279999 0  0.959998 0.279999 0  1 0.279999 0  1.04 0.279999 0  1.08 0.28 0  1.12 0.28 0  1.16 0.28 0  1.2 0.28 0  1.24 0.28 0  1.28 0.28 0  1.32 0.28 0  1.36 0.28 0  1.4 0.28 0  1.44 0.28 0  1.48 0.28 0  1.52 0.28 0  1.56 0.28 0  1.6 0.28 0  1.64 0.28 0  1.68 0.28 0  1.72 0.28 0  1.76 0.28 0  1.8 0.28 0  1.84 0.28 0  1.88 0.28 0  1.92 0.28 0  1.96 0.28 0  2 0.28 0  2.04 0.28 0  2.08 0.28 0  2.12 0.28 0  2.16 0.28 0  2.2 0.28 0  2.24 0.28 0  2.28 0.28 0  2.32 0.28 0  2.36 0.28 0  2.4 0.28 0  0.0401086 0.319877 0  0 0.32 0  0.08025060000000001 0.319748 0  0.120433 0.319661 0  0.160522 0.319802 0  0.199995 0.320467 0  0.239464 0.319795 0  0.279543 0.319643 0  0.31971 0.319714 0  0.359828 0.319813 0  0.399895 0.319889 0  0.439933 0.319937 0  0.479955 0.319965 0  0.519968 0.319981 0  0.559976 0.31999 0  0.599982 0.319995 0  0.6399860000000001 0.319998 0  0.679989 0.319999 0  0.719991 0.32 0  0.759992 0.32 0  0.799994 0.32 0  0.839995 0.32 0  0.879996 0.32 0  0.919998 0.32 0  0.959999 0.32 0  1 0.32 0  1.04 0.32 0  1.08 0.32 0  1.12 0.32 0  1.16 0.32 0  1.2 0.32 0  1.24 0.32 0  1.28 0.32 0  1.32 0.32 0  1.36 0.32 0  1.4 0.32 0  1.44 0.32 0  1.48 0.32 0  1.52 0.32 0  1.56 0.32 0  1.6 0.32 0  1.64 0.32 0  1.68 0.32 0  1.72 0.32 0  1.76 0.32 0  1.8 0.32 0  1.84 0.32 0  1.88 0.32 0  1.92 0.32 0  1.96 0.32 0  2 0.32 0  2.04 0.32 0  2.08 0.32 0  2.12 0.32 0  2.16 0.32 0  2.2 0.32 0  2.24 0.32 0  2.28 0.32 0  2.32 0.32 0  2.36 0.32 0  2.4 0.32 0  0.0400579 0.359942 0  0 0.36 0  0.0801229 0.359891 0  0.120183 0.359873 0  0.160175 0.35994 0  0.199997 0.360086 0  0.239816 0.359936 0  0.279804 0.359862 0  0.319855 0.359871 0  0.359906 0.359906 0  0.399941 0.35994 0  0.439962 0.359964 0  0.479975 0.359979 0  0.5199820000000001 0.359989 0  0.559987 0.359994 0  0.59999 0.359997 0  0.639993 0.359998 0  0.679994 0.359999 0  0.7199950000000001 0.36 0  0.759996 0.36 0  0.799997 0.36 0  0.839997 0.36 0  0.8799979999999999 0.36 0  0
[...]
<PointData  Scalars="f_10391-0"> 
<DataArray  type="Float64"  Name="f_10391-0"  format="ascii">6.1831346978634509e-03  6.9998413872579346e-03  8.1607839036881916e-03  6.9991461821423389e-03  7.9044564294591581e-03  9.8491653771155627e-03  7.1928939587885795e-03  8.8791390049784476e-03  5.1070395242677289e-03  5.8925243491591180e-03  3.0657368193380851e-03  3.3780136777588300e-03  1.6065986031562085e-03  1.7137506395324186e-03  7.4566392550470535e-04  7.7278813654993266e-04  3.0781024646789822e-04  3.0980548950166893e-04  1.1284400994366391e-04  1.0983342118456210e-04  3.6547655616519788e-05  3.4071865609201328e-05  1.0367645260669280e-05  9.0896648520606894e-06  2.5425442119723292e-06  2.0243040166648548e-06  5.2802004619434625e-07  3.5415807521454746e-07  8.9508886829836770e-08  4.0676119846591916e-08  1.1420709955435249e-08  3.9720819015481284e-12  8.2164404790917394e-10  -1.3503992789641278e-09  -5.0858518924694993e-11  -3.6965190947628196e-10  -2.6616441683693483e-11  -5.7527122274497495e-11  -4.2971192986960339e-12  -4.7713331356097600e-12  -3.5200596938064563e-13  1.2933928166882637e-13  1.2028975363328960e-15  1.0051459305948584e-13  4.1472046826462544e-15  1.4084478722195663e-14  4.9140055293064928e-16  7.5814403986561507e-16  1.7654183284127792e-17  -5.1098327501472353e-17  -1.7071679148090977e-18  -1.1716208020368242e-17  -2.0261243385665797e-19  -6.4224222824565352e-19  -1.3666905094628292e-21  2.3451495972753746e-20  7.5786032009269441e-22  3.9587973684441533e-21  8.9369266286995519e-24  -5.1903558665807425e-24  -3.3481794007509893e-24  -1.6186547684843051e-23  -9.0883706803782023e-27  1.2384992815728374e-25  1.2737260723771919e-26  6.7594809751639007e-26  -4.1811802561122033e-28  -2.3261244485276581e-27  -3.3361094301787156e-29  -2.3137018505158451e-28  4.0254925724637933e-30  2.0169607941739325e-29  -6.9897818543629611e-32  1.6258843288464961e-31  -1.8208134628016471e-32  -1.0465177791568662e-31  1.4428647627502921e-33  4.9270593693468690e-33  6.7192837081060959e-36  1.8712072896262424e-34  -6.9089234908104634e-36  -3.4641448317837142e-35  4.1303404293666477e-37  1.5247519903310865e-36  -9.1503892349169332e-40  4.6488141527086465e-38  -1.5876081803828922e-39  -1.0248287454361790e-38  1.3492198898638788e-40  6.1546903477954206e-40  -5.2524654576693848e-42  -7.0872360279010845e-42  -1.0156436372310628e-43  -2.0843152221058404e-42  3.3751722710766425e-44  2.2454810006616470e-43  -2.9145926915138794e-45  -1.2249991666115115e-44  1.4345509396345825e-46  1.8597244020795440e-46  -1.4331385709580783e-48  3.8350304660125517e-47  -5.3494450926292062e-49  -4.8697286632419899e-48  6.5498878941082915e-50  3.3891046545707210e-49  -4.6796938621815132e-51  -1.3952799704030311e-50  2.1374086388256085e-52  -6.3219171320877494e-53  -2.1265849817539132e-54  7.3013094863525952e-53  -7.7053788213524961e-55  -7.9270884007715880e-54  9.8931708277483949e-56  5.6561327813641278e-55  -7.8733365238495358e-57  -2.8660588121520888e-56  4.6236053057751837e-58  6.4021667681089410e-58  -4.5762063940160882e-59  9.2428511614972467e-59  9.8461661814453674e-03  7.9010106536497628e-03  1.4045339496122590e-02  1.3285140165525771e-02  7.9042744661290618e-03  4.1086120629820842e-03  1.9615995484132702e-03  8.4212077678715600e-04  3.2459323056210817e-04  1.1114206154310116e-04  3.3222842959659027e-05  8.4473254239853145e-06  1.7454340638415963e-06  2.6350725624015126e-07  1.7949981623582088e-08  -4.1157819080760408e-09  -1.7297180941122706e-09  -3.0842742061416886e-10  -2.0955478016319034e-11  4.2524203156330717e-12  1.5310492771711276e-12  2.2429890785695067e-13  1.3114056063549160e-14  -1.3532159925359926e-15  -3.6483182176153569e-16  -3.0226238932732584e-17  1.4443072441600248e-19  2.3641504257309409e-19  1.4794500928415903e-20  -4.7314152480555590e-22  -7.1122436564454488e-23  2.1142194945791459e-24  3.3902257277333892e-25  -1.4799293253333277e-26  -1.3929479774481474e-27  1.0341038366890346e-28  3.4372508265556591e-30  -5.3035866081197940e-31  9.9556802687630423e-33  1.4201102305215626e-33  -1.3540463526847209e-34  4.1785628798360129e-36  3.3636427882511968e-37  -5.0566475392869925e-38  2.4353002236797486e-39  4.8046872318771631e-41  -1.5473543656222294e-41  1.1310940034906426e-42  -3.2084180928458181e-44  -2.1218530622510865e-45  3.4941089930046230e-46  -2.5215525776353630e-47  9.9659096608821255e-49  1.0488717471408282e-50  -5.6458423923147987e-51  5.6655338633323256e-52  -3.7201379898796634e-53  1.6094590640770567e-54  -1.3362420027741195e-56  -6.3790454870755780e-57  1.5159569267892653e-57  8.8703535139845694e-03  7.1844326821532507e-03  1.3277780398417927e-02  1.3497358852211826e-02  8.5915476204353521e-03  4.4421063864767121e-03  2.0144371807066762e-03  8.1951183540520973e-04  3.0456113802536481e-04  1.0111721675942665e-04  2.9150694467746903e-05  7.0148365435299236e-06  1.3070226595234118e-06  1.4906057738925827e-07  -6.3726591388027182e-09  -7.8799928343466809e-09  -1.9880057704468244e-09  -2.4710647369230583e-10  3.7291934558369153e-12  8.0103287231508958e-12  1.5035920527670313e-12  7.2354748514909966e-14  -2.5206498328958317e-14  -6.3869236409595840e-15  -6.2392114249211749e-16  2.4572802008489397e-18  7.8962664468402185e-18  8.2185073618487878e-19  7.9712093882037199e-21  -4.8520453532288504e-21  -2.6544477853496128e-22  1.7224488193553228e-23  1.5064337236124239e-24  -8.2905301434722174e-26  -6.9562156675918904e-27  4.3320298838080399e-28  1.7942434431288411e-29  -2.3062024602284794e-30  2.9038950030375367e-32  7.8285960246971921e-33  -5.9191576058180347e-34  6.6339512655479631e-36  2.2349546264956967e-36  -2.1453849448669196e-37  6.8753146880436478e-39  5.3048863119925764e-40  -8.2276877633829327e-41  4.4471821301137838e-42  6.4624182643539072e-45  -2.0973906833626217e-44  1.9011238092598920e-45  -8.7306765548549833e-47  1.2264369101467971e-49  3.7091264934177382e-49  -3.8737934497672461e-50  2.4719150763841858e-51  -9.7039349318045686e-53  -2.7909056035692356e-55  4.7496300539341046e-55  -5.5325094724694767e-56  8.1308075869571260e-57  5.8775091292421556e-03  5.0932485483993250e-03  7.8880056409272592e-03  8.5796990852281714e-03  7.0144990770152210e-03  4.2597630554035357e-03  1.4861762035585080e-03  5.9255977495612498e-04  2.1993713379544431e-04  7.2010329859765652e-05  1.9902261467590899e-05  4.3356296296881137e-06  6.1429599376486690e-07  -5.2831437671655449e-09  -3.4076054557696860e-08  -1.1210228171406789e-08  -2.0006362825564362e-09  -1.3456472710194124e-10  3.3354461116216940e-11  1.1487263859911620e-11  1.3714482625749101e-12  -4.9913109595421389e-14  -4.1988890445934604e-14  -5.2700839703683798e-15  1.9712339390904505e-16  1.5010181547782144e-16  1.9516150182041500e-17  4.6914809162729022e-19  -1.7051402152701958e-19  -2.0346712112654596e-20  -2.3625155616695776e-22  1.1289924984483580e-22  5.6459189939438863e-24  -3.7324896208053042e-25  -2.3538386478306776e-26  1.7307836482194637e-27  4.3281557300593947e-29  -9.4994658209897881e-30  2.5110525385250309e-31  3.6167611570598072e-32  -3.1686507588764803e-33  -4.4636845939669325e-36  1.4354157510730803e-35  -8.9976995998902637e-37  3.1842401340212252e-39  3.7612652232793065e-39  -3.3692112733103142e-40  1.1924593600078483e-41  5.8744891725156248e-43  -1.1385080658498696e-43  7.7337595229278083e-45  -1.9777079331287965e-46  -1.5722930006189320e-47  2.4236044514526146e-48  -1.7709055432835688e-49  7.7871628293770307e-51  -4.6263365249795679e-53  -2.9708990628897700e-53  3.5081016527269850e-54  -2.6951263773988679e-55  2.9172933897577212e-56  3.3595995942744847e-03  3.0492082853882650e-03  4.0873661799497359e-03  4.4220254563055277e-03  4.2436145323754421e-03  2.5114213254978727e-04  4.9928614467749876e-04  1.0732503726730511e-04  3.6244456097222748e-05  9.3430977286038318e-06  1.5426079749023033e-06  -1.8676534702108928e-08  -1.1818133579994263e-07  -4.5871967227623476e-08  -1.0023499626900299e-08  -1.0222149347335956e-09  1.4056737185434677e-10  7.9968729444835379e-11  1.5124095691420238e-11  9.2280277191654962e-13  -2.2849936533380508e-13  -6.2039419263805655e-14  -4.2792306494925516e-15  7.4516982648116580e-16  1.7929633083370010e-16  5.2056902379058746e-18  -3.1758103194595691e-18  -5.3428360676291784e-19  -2.2941220664406626e-20  3.1393957637922905e-21  4.3773996515216240e-22  8.3251245709865717e-24  -1.5006724986635808e-24  -2.3742530472982584e-26  7.8582775668878862e-27  -9.4394024080931515e-29  -4.2986800571545982e-29  1.8755852935193789e-30  1.6326880868823106e-31  -1.5673407986690502e-32  -4.2692105877857735e-35  7.5450979023496482e-35  -4.0593624357996348e-36  -8.1868096985679449e-38  2.1778705318094724e-38  -1.2419578603571174e-39  1.3059777540975100e-41  4.1613080101013864e-42  -4.6765197133207575e-43  2.6557732964889953e-44  -3.1531685868616184e-46  -1.0233424556764917e-46  1.2003186281922604e-47  -7.4821852185704685e-49  2.2062468220624208e-50  1.0992200332069161e-51  -2.1819667713416474e-52  1.9068815147608174e-53  -1.2130920657690478e-54  1.0532086042157536e-55  1.6966817936901783e-03  1.5915786933116229e-03  1.9414529390395288e-03  1.9953127729404880e-03  1.4726494990896604e-03  1.2444950682092594e-04  2.1903465786269236e-04  4.9720668196872987e-05  1.5097905866411147e-05  2.9631616394949715e-06  2.0938333659505136e-09  -2.7974705995251960e-07  -1.2844008033073418e-07  -3.2965693036862030e-08  -4.0628196843918010e-09  5.6190763560444257e-10  4.0936501436894130e-10  9.7474580030007522e-11  9.5796103205985506e-12  -1.2581936143073294e-12  -6.0803171121165515e-13  -8.9659537363527711e-14  -1.3342024339454312e-15  1.7004558374580012e-15  2.5292253637527753e-16  -9.5454921625747948e-20  -3.8965510515278186e-18  -2.7138853169057917e-19  5.0406230038868357e-20  9.9012484542885413e-21  3.7111054692476666e-22  -5.3439446927126050e-23  -4.0661199319323772e-24  3.3524765583007997e-25  3.5153779903646281e-26  -1.7536649639233944e-27  -1.9645865597798821e-28  1.0570200040810590e-29  6.4205494251417554e-31  -7.0982478477586222e-32  1.1220923362825284e-34  3.2334407254731649e-34  -1.8502854903287803e-35  -3.4869753483140584e-37  1.0569267508745203e-37  -5.7330517723481331e-39  -1.8648626829158677e-41  2.4403239935774910e-41  -2.0801992721151264e-42  9.6608983367774951e-44  2.3712003843004963e-46  -5.6601624262640103e-46  6.0733619332183469e-47  -3.4653489553503570e-48  5.7582866260336630e-50  1.0896292565069609e-50  -1.4748669830163546e-51  1.1365455469442393e-52  -5.8575789962756528e-54  2.6550168469002490e-55  7.6119385868345026e-04  7.3555974883884293e-04  8.2810469847894100e-04  8.0623202913626267e-04  5.8385440951372650e-04  4.9442545940459384e-04  2.4764830618549303e-04  1.2345175394814134e-04  5.2574450872209964e-05  1.8380514436965124e-05  4.3686469272372620e-06  1.5672748630954495e-07  -4.5155078681276844e-07  -2.5224796401353937e-07  -7.5912279945478430e-08  -1.0931354944504149e-08  1.6952259597718033e-09  1.4560350255083471e-09  4.0706616655184889e-10  4.8918517315538515e-11  -6.1790500873524570e-12  -3.9359287145382536e-12  -7.5339802548892006e-13  -3.7577829216515247e-14  1.4776296060679985e-14  3.7532561612182100e-15  3.1020808756361948e-16  -1.9816693025420278e-17  -6.0493376181630059e-18  -2.0551474177875204e-19  4.1230439816611703e-20  -3.6006591621979647e-21  -2.2104975543455988e-21  -2.1328799329594906e-22  8.6046969896767515e-24  2.9193788964539179e-24  1.2185881675653790e-25  -1.0778982916378508e-26  -6.2482599720689822e-28  5.5540729023077691e-29  1.6876901477198346e-30  -3.1131876982909569e-31  4.8941608444971279e-33  1.2227588868843915e-33  -9.4234712505657389e-35  -6.5826011236729325e-38  4.8251295099300771e-37  -3.4406100323358527e-38  1.5961491166722929e-40  1.5229986299962472e-40  -1.3059200517338468e-41  4.3580096750917215e-43  1.9643592080996363e-44  -4.0535779602447422e-45  3.2903505455374015e-46  -1.4387041929101710e-47  -2.0497866014772942e-49  1.0200492904485205e-49  -1.0388069147551041e-50  6.2927394596438303e-52  -1.4159951029806330e-53  -2.7353993005533351e-54  3.0552947934227000e-04  3.0418285054160168e-04  3.1899855572058313e-04  2.9908531572966945e-04  2.1638967725618090e-04  1.0576711070456808e-04  4.9093036470168139e-05  1.8179401352013852e-05  4.8583981176372396e-06  3.1715050118374339e-07  -5.5282525766433499e-07  -3.6963665933101971e-07  -1.2886191633664522e-07  -2.1268606174497026e-08  3.8128567777711107e-09  3.7037127758458905e-09  1.1657227469516922e-09  1.5103162180083570e-10  -2.7317412628059742e-11  -1.7741148683160208e-11  -3.7002938416422333e-12  -1.5172401353871065e-13  1.1572672861283762e-13  3.0958630461970939e-14  2.5263561439909300e-15  -3.8345472513859417e-16  -1.1532913952514212e-16  -7.2262660877431213e-18  1.1461882186287522e-18  1.7051499478120428e-19  -1.5193334433944313e-20  -4.6150090324321834e-21  -4.6912456255047423e-23  8.3576029896685800e-23  9.5574362770815321e-24  7.5740761307287400e-26  -4.6851360206793468e-26  -6.1457685336209146e-28  2.5576406799739723e-28  -1.8799578884496365e-30  -1.3533481506252247e-30  5.9268139836858930e-32  4.6585107448697330e-33  -5.5699845363230259e-34  6.8902331367205271e-36  2.5704703705901979e-36  -2.0962371703369083e-37  1.3367707433329316e-39  1.0091176996675780e-39  -8.5053389443716453e-41  1.7557382151977293e-42  2.5963066636124595e-43  -3.0852894435906180e-44  1.6733603223335837e-45  -1.8732840627244961e-47  -6.5321968010944201e-48  8.2185625609369221e-49  -5.5837838050077005e-50  1.7219812977594410e-51  1.1820683388845575e-52  -4.0126477845293079e-53  1.1632044350618150e-04  1.2008044493952259e-04  1.1665478357492476e-04  1.0559974415174747e-04  7.5082137788215134e-05  3.7620762932275863e-05  1.5305170138365060e-05  4.1368758873994739e-06  9.5600480931522713e-08  -7.0941103522247420e-07  -4.8820118097064034e-07  -1.8419155492095241e-07  -3.1391608875042833e-08  8.7611638266412053e-09  8.2094434306126061e-09  2.7390389039358951e-09  3.1840845746409126e-10  -1.2623443516671708e-10  -7.1875451084035326e-11  -1.4828588266534406e-11  1.2758100621121445e-13  9.0992172482883764e-13  2.3501813184664731e-13  1.4975088558921161e-14  -6.4271012017234233e-15  -1.8965890047521905e-15  -1.5313340857350247e-16  2.7743719210702646e-17  8.2859074186300763e-18  5.9354155966074823e-19  -7.7230480660533962e-20  -1.7887589070818548e-20  -6.9586403531988084e-22  1.3256592077657184e-22  1.2033943852149088e-23  -7.6589461392829502e-25  -9.7685211831520341e-26  7.9798065456249252e-27  9.8024506694995723e-28  -5.3122325247873632e-29  -5.6440518435642927e-30  4.4921257524105761e-31  1.9378614516470511e-32  -3.3052126898273618e-33  4.2015336129644458e-35  1.5440148994013685e-35  -1.1399492748976124e-36  -7.7956376985401120e-39  6.5252894637954682e-39  -4.4436634687775886e-40  1.2118008362277192e-42  2.1935065081425721e-42  -1.9313776974498165e-43  6.0406308216517484e-45  3.9699602644547665e-46  -6.6895163803731432e-47  4.6095760438710376e-48  -1.4078380477099052e-49  -7.5623981500510348e-51  1.5120116520627717e-51  -2.4158266240015278e-52  6.7418462939290727e-05  7.6365053612218524e-05  6.4675241744102763e-05  5.6560647132182680e-05  3.8750127894940596e-05  1.8265522574747932e-05  5.7739939106611806e-06  2.8237046751452631e-07  -1.0828671377544719e-06  -8.6464562487710543e-07  -3.8838042990685863e-07  -9.3079578621455872e-08  9.6252423549086176e-09  1.9683106415935237e-08  8.7710161160091987e-09  1.6764257299228850e-09  -2.7028915758537623e-10  -2.8740712002984327e-10  -8.5497737916325926e-11  -6.4536010984535234e-12  4.2948857533560011e-12  1.7624424520344619e-12  2.4712946910871197e-13  -2.8764356439440837e-14  -1.8861727047151607e-14  -3.0789075928370000e-15  5.7662413759001476e-17  1.1248999167042476e-16  1.8374969524846932e-17  1.8892206128362711e-19  -3.6341653434880736e-19  -5.1455846471306751e-20  -6.9133843986226784e-22  5.0843180377712614e-22  4.2313926189576276e-23  -6.6575034519103915e-25  2.4049631234118528e-26  4.9983142233797157e-26  2.7651762450371740e-27  -3.4450709882911015e-28  -2.1937759042901009e-29  2.4626118293090607e-30  9.3690877824330642e-32  -1.6756107857267345e-32  1.0661899968245472e-34  8.7928018659283840e-35  -5.0848941859669244e-36  -1.6784807774289926e-37  3.7067438639132858e-38  -1.7481791085939687e-39  -6.1001462769129289e-41  1.4105254616665867e-41  -8.6459572855650116e-43  4.9537733788748817e-46  4.4576276984392491e-45  -3.9980547772853775e-46  1.4766139336106475e-47  4.6461240510904671e-49  -1.1055315416280744e-49  9.0787350813908325e-51  -7.9998393845042107e-52  </DataArray> 
</PointData> 
</Piece>
</UnstructuredGrid>
</VTKFile>