<?xml version="1.0"?>
<VTKFile type="UnstructuredGrid"  version="0.1"  >
<UnstructuredGrid>
<Piece  NumberOfPoints="670" NumberOfCells="1192">
<Points>
<DataArray  type="Float64"  NumberOfComponents="3"  format="ascii">0 0 0  0.04 -1.31357e-10 0  0.0400579 0.0400582 0  0 0.04 0  0.08 -2.62713e-10 0  0.080123 0.0401093 0  0.12 -3.9407e-10 0  0.120183 0.040127 0  0.16 -5.25427e-10 0  0.160176 0.0400597 0  0.2 -6.56784e-10 0  0.199997 0.0399142 0  0.24 -7.8814e-10 0  0.239816 0.0400642 0  0.28 -9.19497e-10 0  0.279804 0.0401377 0  0.32 -1.05085e-09 0  0.319855 0.0401297 0  0.36 -1.18221e-09 0  0.359906 0.0400945 0  0.4 -1.31357e-09 0  0.399941 0.0400609 0  0.44 -1.44492e-09 0  0.439962 0.0400367 0  0.48 -1.57628e-09 0  0.479975 0.0400214 0  0.52 -1.70764e-09 0  0.519983 0.0400122 0  0.5600000000000001 -1.83899e-09 0  0.559987 0.0400069 0  0.6 -1.97035e-09 0  0.59999 0.040004 0  0.64 -2.10171e-09 0  0.639993 0.0400023 0  0.68 -2.23306e-09 0  0.679994 0.0400013 0  0.72 -2.36442e-09 0  0.7199950000000001 0.0400008 0  0.76 -2.49578e-09 0  0.759996 0.0400005 0  0.8 -2.62713e-09 0  0.799997 0.0400002 0  0.84 -2.75849e-09 0  0.839997 0.0400001 0  0.88 -2.88985e-09 0  0.8799979999999999 0.04 0  0.92 -3.0212e-09 0  0.919999 0.0399999 0  0.96 -3.15256e-09 0  0.959999 0.0399998 0  1 -3.28392e-09 0  1 0.0399998 0  1.04 -3.41527e-09 0  1.04 0.0399998 0  1.08 -3.54663e-09 0  1.08 0.0399998 0  1.12 -3.67799e-09 0  1.12 0.0399998 0  1.16 -3.80934e-09 0  1.16 0.0399999 0  1.2 -3.9407e-09 0  1.2 0.04 0  1.24 -4.07206e-09 0  1.24 0.04 0  1.28 -4.20341e-09 0  1.28 0.0400001 0  1.32 -4.33477e-09 0  1.32 0.0400001 0  1.36 -4.46613e-09 0  1.36 0.04 0  1.4 -4.59748e-09 0  1.4 0.04 0  1.44 -4.72884e-09 0  1.44 0.04 0  1.48 -4.8602e-09 0  1.48 0.04 0  1.52 -4.99156e-09 0  1.52 0.04 0  1.56 -5.12291e-09 0  1.56 0.04 0  1.6 -5.25427e-09 0  1.6 0.0400001 0  1.64 -5.38563e-09 0  1.64 0.0400001 0  1.68 -5.51698e-09 0  1.68 0.04 0  1.72 -5.64834e-09 0  1.72 0.04 0  1.76 -5.7797e-09 0  1.76 0.04 0  1.8 -5.91105e-09 0  1.8 0.04 0  1.84 -6.04241e-09 0  1.84 0.04 0  1.88 -6.17377e-09 0  1.88 0.0400001 0  1.92 -6.30512e-09 0  1.92 0.0400001 0  1.96 -6.43648e-09 0  1.96 0.0400001 0  2 -6.56784e-09 0  2 0.0400001 0  2.04 -6.69919e-09 0  2.04 0.0400001 0  2.08 -6.83055e-09 0  2.08 0.04 0  2.12 -6.96191e-09 0  2.12 0.04 0  2.16 -7.09326e-09 0  2.16 0.0400001 0  2.2 -7.22462e-09 0  2.2 0.04 0  2.24 -7.35598e-09 0  2.24 0.04 0  2.28 -7.48733e-09 0  2.28 0.0399999 0  2.32 -7.618690000000001e-09 0  2.32 0.04 0  2.36 -7.750049999999999e-09 0  2.36 0.04 0  2.4 -7.8814e-09 0  2.4 0.04 0  0.0401088 0.0801235 0  0 0.08 0  0.0802509 0.0802518 0  0.120434 0.0803392 0  0.160522 0.0801977 0  0.199995 0.0795328 0  0.239464 0.0802049 0  0.279544 0.08035689999999999 0  0.319711 0.0802867 0  0.359828 0.08018740000000001 0  0.399896 0.0801123 0  0.439933 0.0800646 0  0.479955 0.0800365 0  0.519968 0.08002049999999999 0  0.559976 0.0800116 0  0.599982 0.0800066 0  0.6399860000000001 0.0800039 0  0.679989 0.0800023 0  0.719991 0.0800014 0  0.759992 0.0800008 0  0.799994 0.0800004 0  0.839995 0.08000019999999999 0  0.879996 0.0799999 0  0.919997 0.07999970000000001 0  0.959999 0.0799996 0  1 0.0799995 0  1.04 0.0799995 0  1.08 0.0799996 0  1.12 0.07999970000000001 0  1.16 0.0799998 0  1.2 0.08 0  1.24 0.0800001 0  1.28 0.0800001 0  1.32 0.0800001 0  1.36 0.08 0  1.4 0.0799999 0  1.44 0.0799999 0  1.48 0.0799999 0  1.52 0.0799999 0  1.56 0.08 0  1.6 0.0800001 0  1.64 0.0800001 0  1.68 0.08 0  1.72 0.0799999 0  1.76 0.0799999 0  1.8 0.0799999 0  1.84 0.0799999 0  1.88 0.08 0  1.92 0.0800001 0  1.96 0.0800001 0  2 0.0800001 0  2.04 0.08 0  2.08 0.0799999 0  2.12 0.0799999 0  2.16 0.08 0  2.2 0.08 0  2.24 0.0799999 0  2.28 0.0799998 0  2.32 0.0799999 0  2.36 0.0799999 0  2.4 0.08 0  0.0401262 0.120184 0  0 0.12 0  0.0803378 0.120435 0  0.120779 0.12078 0  0.161485 0.120859 0  0.199996 0.117814 0  0.238503 0.120866 0  0.279195 0.120798 0  0.319616 0.120473 0  0.359799 0.120256 0  0.39988 0.120136 0  0.439921 0.120073 0  0.479944 0.120039 0  0.519958 0.120022 0  0.5599690000000001 0.120012 0  0.599976 0.120007 0  0.639981 0.120004 0  0.679985 0.120002 0  0.719987 0.120002 0  0.7599900000000001 0.120001 0  0.799991 0.12 0  0.839993 0.12 0  0.879995 0.12 0  0.919996 0.12 0  0.959998 0.119999 0  1 0.119999 0  1.04 0.119999 0  1.08 0.119999 0  1.12 0.12 0  1.16 0.12 0  1.2 0.12 0  1.24 0.12 0  1.28 0.12 0  1.32 0.12 0  1.36 0.12 0  1.4 0.12 0  1.44 0.12 0  1.48 0.12 0  1.52 0.12 0  1.56 0.12 0  1.6 0.12 0  1.64 0.12 0  1.68 0.12 0  1.72 0.12 0  1.76 0.12 0  1.8 0.12 0  1.84 0.12 0  1.88 0.12 0  1.92 0.12 0  1.96 0.12 0  2 0.12 0  2.04 0.12 0  2.08 0.12 0  2.12 0.12 0  2.16 0.12 0  2.2 0.12 0  2.24 0.12 0  2.28 0.12 0  2.32 0.12 0  2.36 0.12 0  2.4 0.12 0  0.0400582 0.160177 0  0 0.16 0  0.0801954 0.160525 0  0.120857 0.161488 0  0.164645 0.164645 0  0.2 0.15 0  0.235355 0.164645 0  0.279119 0.161498 0  0.319759 0.16055 0  0.359874 0.160228 0  0.399906 0.160104 0  0.439925 0.160051 0  0.479941 0.160027 0  0.519954 0.160014 0  0.559964 0.160008 0  0.5999719999999999 0.160005 0  0.639978 0.160003 0  0.679982 0.160002 0  0.719985 0.160001 0  0.759988 0.160001 0  0.79999 0.16 0  0.839992 0.16 0  0.8799940000000001 0.16 0  0.919996 0.159999 0  0.959998 0.159999 0  1 0.159999 0  1.04 0.159999 0  1.08 0.159999 0  1.12 0.16 0  1.16 0.16 0  1.2 0.16 0  1.24 0.16 0  1.28 0.16 0  1.32 0.16 0  1.36 0.16 0  1.4 0.16 0  1.44 0.16 0  1.48 0.16 0  1.52 0.16 0  1.56 0.16 0  1.6 0.16 0  1.64 0.16 0  1.68 0.16 0  1.72 0.16 0  1.76 0.16 0  1.8 0.16 0  1.84 0.16 0  1.88 0.16 0  1.92 0.16 0  1.96 0.16 0  2 0.16 0  2.04 0.16 0  2.08 0.16 0  2.12 0.16 0  2.16 0.16 0  2.2 0.16 0  2.24 0.16 0  2.28 0.16 0  2.32 0.16 0  2.36 0.16 0  2.4 0.16 0  0.0399111 0.2 0  0 0.2 0  0.0795281 0.2 0  0.117811 0.2 0  0.15 0.2 0  0.282167 0.2 0  0.25 0.2 0  0.320429 0.2 0  0.36003 0.200001 0  0.399944 0.200001 0  0.439934 0.200001 0  0.479942 0.200001 0  0.519953 0.200001 0  0.559963 0.200001 0  0.59997 0.200001 0  0.639976 0.200001 0  0.6799809999999999 0.200001 0  0.719984 0.200001 0  0.759987 0.200001 0  0.799989 0.2 0  0.839991 0.2 0  0.879993 0.2 0  0.919996 0.199999 0  0.959998 0.199999 0  1 0.199999 0  1.04 0.199999 0  1.08 0.199999 0  1.12 0.2 0  1.16 0.2 0  1.2 0.2 0  1.24 0.2 0  1.28 0.2 0  1.32 0.2 0  1.36 0.2 0  1.4 0.2 0  1.44 0.2 0  1.48 0.2 0  1.52 0.2 0  1.56 0.2 0  1.6 0.2 0  1.64 0.2 0  1.68 0.2 0  1.72 0.2 0  1.76 0.2 0  1.8 0.2 0  1.84 0.2 0  1.88 0.2 0  1.92 0.2 0  1.96 0.2 0  2 0.2 0  2.04 0.2 0  2.08 0.2 0  2.12 0.2 0  2.16 0.2 0  2.2 0.2 0  2.24 0.2 0  2.28 0.2 0  2.32 0.2 0  2.36 0.2 0  2.4 0.2 0  0.0400582 0.239823 0  0 0.24 0  0.0801953 0.239475 0  0.120857 0.238513 0  0.164645 0.235355 0  0.279119 0.238502 0  0.235355 0.235355 0  0.319759 0.239451 0  0.359873 0.239774 0  0.399905 0.239898 0  0.439925 0.239951 0  0.479941 0.239976 0  0.519954 0.239988 0  0.559964 0.239994 0  0.5999719999999999 0.239997 0  0.639977 0.239999 0  0.679982 0.24 0  0.719985 0.24 0  0.759987 0.24 0  0.79999 0.24 0  0.839992 0.24 0  0.8799940000000001 0.24 0  0.919996 0.239999 0  0.959998 0.239999 0  1 0.239999 0  1.04 0.239999 0  1.08 0.239999 0  1.12 0.24 0  1.16 0.24 0  1.2 0.24 0  1.24 0.24 0  1.28 0.24 0  1.32 0.24 0  1.36 0.24 0  1.4 0.24 0  1.44 0.24 0  1.48 0.24 0  1.52 0.24 0  1.56 0.24 0  1.6 0.24 0  1.64 0.24 0  1.68 0.24 0  1.72 0.24 0  1.76 0.24 0  1.8 0.24 0  1.84 0.24 0  1.88 0.24 0  1.92 0.24 0  1.96 0.24 0  2 0.24 0  2.04 0.24 0  2.08 0.24 0  2.12 0.24 0  2.16 0.24 0  2.2 0.24 0  2.24 0.24 0  2.28 0.24 0  2.32 0.24 0  2.36 0.24 0  2.4 0.24 0  0.0401261 0.279816 0  0 0.28 0  0.0803376 0.279565 0  0.120778 0.27922 0  0.161485 0.279141 0  0.2 0.25 0  0.199996 0.282186 0  0.238503 0.279135 0  0.279195 0.279202 0  0.319616 0.279528 0  0.359799 0.279745 0  0.39988 0.279865 0  0.43992 0.279929 0  0.479944 0.279962 0  0.519958 0.27998 0  0.559968 0.27999 0  0.599976 0.279995 0  0.639981 0.279998 0  0.679984 0.279999 0  0.719987 0.28 0  0.759989 0.28 0  0.799991 0.28 0  0.839993 0.28 0  0.879995 0.28 0  0.919997 0.279999 0  0.959998 0.279999 0  1 0.279999 0  1.04 0.279999 0  1.08 0.28 0  1.12 0.28 0  1.16 0.28 0  1.2 0.28 0  1.24 0.28 0  1.28 0.28 0  1.32 0.28 0  1.36 0.28 0  1.4 0.28 0  1.44 0.28 0  1.48 0.28 0  1.52 0.28 0  1.56 0.28 0  1.6 0.28 0  1.64 0.28 0  1.68 0.28 0  1.72 0.28 0  1.76 0.28 0  1.8 0.28 0  1.84 0.28 0  1.88 0.28 0  1.92 0.28 0  1.96 0.28 0  2 0.28 0  2.04 0.28 0  2.08 0.28 0  2.12 0.28 0  2.16 0.28 0  2.2 0.28 0  2.24 0.28 0  2.28 0.28 0  2.32 0.28 0  2.36 0.28 0  2.4 0.28 0  0.0401086 0.319877 0  0 0.32 0  0.08025060000000001 0.319748 0  0.120433 0.319661 0  0.160522 0.319802 0  0.199995 0.320467 0  0.239464 0.319795 0  0.279543 0.319643 0  0.31971 0.319714 0  0.359828 0.319813 0  0.399895 0.319889 0  0.439933 0.319937 0  0.479955 0.319965 0  0.519968 0.319981 0  0.559976 0.31999 0  0.599982 0.319995 0  0.6399860000000001 0.319998 0  0.679989 0.319999 0  0.719991 0.32 0  0.759992 0.32 0  0.799994 0.32 0  0.839995 0.32 0  0.879996 0.32 0  0.919998 0.32 0  0.959999 0.32 0  1 0.32 0  1.04 0.32 0  1.08 0.32 0  1.12 0.32 0  1.16 0.32 0  1.2 0.32 0  1.24 0.32 0  1.28 0.32 0  1.32 0.32 0  1.36 0.32 0  1.4 0.32 0  1.44 0.32 0  1.48 0.32 0  1.52 0.32 0  1.56 0.32 0  1.6 0.32 0  1.64 0.32 0  1.68 0.32 0  1.72 0.32 0  1.76 0.32 0  1.8 0.32 0  1.84 0.32 0  1.88 0.32 0  1.92 0.32 0  1.96 0.32 0  2 0.32 0  2.04 0.32 0  2.08 0.32 0  2.12 0.32 0  2.16 0.32 0  2.2 0.32 0  2.24 0.32 0  2.28 0.32 0  2.32 0.32 0  2.36 0.32 0  2.4 0.32 0  0.0400579 0.359942 0  0 0.36 0  0.0801229 0.359891 0  0.120183 0.359873 0  0.160175 0.35994 0  0.199997 0.360086 0  0.239816 0.359936 0  0.279804 0.359862 0  0.319855 0.359871 0  0.359906 0.359906 0  0.399941 0.35994 0  0.439962 0.359964 0  0.479975 0.359979 0  0.5199820000000001 0.359989 0  0.559987 0.359994 0  0.59999 0.359997 0  0.639993 0.359998 0  0.679994 0.359999 0  0.7199950000000001 0.36 0  0.759996 0.36 0  0.799997 0.36 0  0.839997 0.36 0  0.8799979999999999 0.36 0  0
[...]
<PointData  Scalars="f_10391-0"> 
<DataArray  type="Float64"  Name="f_10391-0"  format="ascii">3.1503841926168064e-02  3.1851713706220745e-02  3.2552283369664994e-02  3.1749074885020462e-02  3.1688438983070007e-02  3.3234224043884444e-02  2.9290684138607432e-02  3.0646763559885246e-02  2.4943131739602092e-02  2.5474793780183223e-02  2.0187543545077968e-02  2.0306453668863623e-02  1.5798342703161074e-02  1.5738524210842448e-02  1.2088380806500570e-02  1.1966924813831950e-02  9.1012755446026345e-03  8.9773342119480841e-03  6.7633013779224808e-03  6.6598222512624962e-03  4.9662940590336690e-03  4.8875829700027271e-03  3.6036994944230339e-03  3.5466963677022781e-03  2.5828640030297317e-03  2.5426778435783700e-03  1.8272240529905374e-03  1.7993458548886995e-03  1.2749651864462509e-03  1.2558409479133076e-03  8.7682576431988930e-04  8.6380522130998644e-04  5.9395684723147018e-04  5.8514716086414118e-04  3.9606770598184812e-04  3.9015376306269557e-04  2.5985469493677892e-04  2.5591313908170300e-04  1.6766191850227198e-04  1.6505603223775862e-04  1.0633975910552615e-04  1.0463254723498274e-04  6.6273954654716749e-05  6.5167683279850568e-05  4.0571071113090610e-05  3.9861744422476112e-05  2.4387332501236927e-05  2.3938099809475304e-05  1.4389297601412110e-05  1.4108793648453768e-05  8.3310630423210197e-06  8.1582916689241834e-06  4.7315706988825761e-06  4.6268427556494452e-06  2.6352065722358622e-06  2.5727432519890899e-06  1.4387591322251785e-06  1.4021311606373870e-06  7.6981002701528288e-07  7.4870875354986956e-07  4.0351173012212613e-07  3.9157713324559233e-07  2.0713665315897027e-07  2.0051415478625396e-07  1.0409552687074871e-07  1.0049231794425546e-07  5.1194238687970296e-08  4.9273125270866106e-08  2.4629510386966551e-08  2.3626356069375155e-08  1.1586671225223380e-08  1.1073922265686170e-08  5.3277151100699785e-09  5.0713053919117685e-09  2.3933185030336805e-09  2.2679377632353022e-09  1.0498301542120245e-09  9.8991078764722470e-10  4.4942732490271233e-10  4.2145607309035853e-10  1.8765583257378730e-10  1.7490814746542849e-10  7.6372934224440522e-11  7.0704357658635894e-11  3.0274098823469638e-11  2.7816144073006800e-11  1.1678758528378600e-11  1.0640149118654972e-11  4.3803113582836434e-12  3.9529451021114638e-12  1.5955946540744471e-12  1.4244835912553243e-12  5.6376233382132743e-13  4.9715754764334615e-13  1.9291628493157265e-13  1.6773637159494794e-13  6.3818543888189313e-14  5.4583790232345271e-14  2.0363355365272714e-14  1.7082097621991242e-14  6.2493222352938609e-15  5.1215792424626526e-15  1.8376815642706883e-15  1.4634853133715533e-15  5.1516191712391936e-16  3.9557961958577523e-16  1.3666967874667435e-16  9.9976135879229586e-17  3.3928374555436211e-17  2.3160754534499404e-17  7.7324833771905879e-18  4.7275173709473344e-18  1.5582187867249757e-18  7.6710058267482208e-19  2.5233446623236888e-19  5.8323859379287483e-20  2.0629318000511987e-20  -2.2742545916008863e-20  -7.3456416524301727e-21  -1.5899660628797196e-20  -8.5432577597587413e-21  -1.0773973364893434e-20  3.2954519925560706e-02  3.1307838154234185e-02  3.6265610008501432e-02  3.4070614585492917e-02  2.6727487596292079e-02  2.0439119095017708e-02  1.5412045239584657e-02  1.1519451018874289e-02  8.5720517780713650e-03  6.3432346750705269e-03  4.6567071311328784e-03  3.3843416425916313e-03  2.4309030053179903e-03  1.7234828423875893e-03  1.2049009364788960e-03  8.2992475614735242e-04  5.6282722214029348e-04  3.7558205683549346e-04  2.4649457421996914e-04  1.5903276356268238e-04  1.0082138553391595e-04  6.2784005087506195e-05  3.8389530307616757e-05  2.3040495249394428e-05  1.3568496579820742e-05  7.8378622112415782e-06  4.4395993100173930e-06  2.4649989690854585e-06  1.3411183951041733e-06  7.1472809013358117e-07  3.7297483121444305e-07  1.9051036524994836e-07  9.5210706243672238e-08  4.6537117924148140e-08  2.2236529372232971e-08  1.0382028055987892e-08  4.7339432146882119e-09  2.1069225537234104e-09  9.1473442499047922e-10  3.8714262724525188e-10  1.5960693402101182e-10  6.4043042509225417e-11  2.4987071461937751e-11  9.4689497814882846e-12  3.4807273104701338e-12  1.2392332736966914e-12  4.2652422481009051e-13  1.4159317205273702e-13  4.5204211672447078e-14  1.3825641510617293e-14  4.0297515547295534e-15  1.1108686878626379e-15  2.8623942501150691e-16  6.7563571624205395e-17  1.4030091019798856e-17  2.3047370939973014e-18  1.7003322000881056e-19  -7.4906332230951328e-20  -4.8183556000481650e-20  -1.9291690866831752e-20  -1.0730245167767793e-20  2.9981464960037316e-02  2.8533750175044528e-02  3.3665617426866502e-02  3.2730885061438855e-02  2.6277101648834313e-02  1.9933712323655487e-02  1.4449547368584340e-02  1.0572772555589258e-02  7.8320818045644613e-03  5.8096944235918975e-03  4.2846677295605602e-03  3.1291844199552274e-03  2.2578189974825020e-03  1.6070993364237210e-03  1.1272825139268961e-03  7.7861945920354100e-04  5.2922681537241330e-04  3.5379309459937985e-04  2.3251522429581421e-04  1.5016093827032240e-04  9.5260724706537340e-05  5.9340567003691141e-05  3.6284863114988037e-05  2.1771825157206868e-05  1.2814604788540970e-05  7.3963277160640111e-06  4.1849861270625626e-06  2.3204845049486983e-06  1.2604240435563993e-06  6.7042577504290749e-07  3.4907274195005024e-07  1.7784431538064050e-07  8.8621877266604575e-08  4.3174335077815108e-08  2.0553587302316449e-08  9.5566196203582006e-09  4.3374461061415829e-09  1.9204928284938272e-09  8.2898790340651350e-10  3.4859027372471520e-10  1.4267496293923134e-10  5.6784377202993389e-11  2.1952194890573986e-11  8.2325254046088024e-12  2.9903825076434734e-12  1.0501493233858333e-12  3.5571809452277812e-13  1.1588311191923973e-13  3.6167979210428732e-14  1.0758041985652448e-14  3.0265522259531201e-15  7.9589116693954143e-16  1.9172168450736026e-16  4.0626897866225579e-17  6.8074987181179458e-18  5.1016024344178719e-19  -2.3180024541169726e-19  -1.5106595981000081e-19  -5.8011777674866033e-20  -1.8587498936289256e-20  -8.9760304133215004e-21  2.4436631097718122e-02  2.3829616312065521e-02  2.5904966730049613e-02  2.5800564530198172e-02  2.3487934328995177e-02  1.8984547960277109e-02  1.2135894333675994e-02  8.9259420678742089e-03  6.7469799682159555e-03  5.0920700004752038e-03  3.8052787467146394e-03  2.8073148932720392e-03  2.0416801153823765e-03  1.4624906614251363e-03  1.0311365912725819e-03  7.1518742906670127e-04  4.8775901315921991e-04  3.2696116454256449e-04  2.1534203912347788e-04  1.3929920968348147e-04  8.8474898798062988e-05  5.5156753342311742e-05  3.3740328423516348e-05  2.0245886447793279e-05  1.1913015933064581e-05  6.8717024328862389e-06  3.8844848734035853e-06  2.1511376782282459e-06  1.1665753355566417e-06  6.1930809355943654e-07  3.2172053489104873e-07  1.6347393992908388e-07  8.1212710405651881e-08  3.9427524990343571e-08  1.8696193833513722e-08  8.6545396776309312e-09  3.9084792879118686e-09  1.7208902377203976e-09  7.3816775239201882e-10  3.0821064729268947e-10  1.2514526201251860e-10  4.9360028338124274e-11  1.8887285734046184e-11  7.0005222093998900e-12  2.5087164941270555e-12  8.6723189518766203e-13  2.8834581205890693e-13  9.1859160663715442e-14  2.7892361312301260e-14  8.0115830617401634e-15  2.1514663656216193e-15  5.2944112259040344e-16  1.1469557904930842e-16  1.9691318823414529e-17  1.5418809531719726e-18  -6.7973082359239256e-19  -4.5756983364690288e-19  -1.7935995860921822e-19  -5.5871790567083289e-20  -1.5140593614007863e-20  -6.2565990773570888e-21  1.9039052253711879e-02  1.8864618999273115e-02  1.9332126597394684e-02  1.9062439996229145e-02  1.8300097249105439e-02  6.7335383467866435e-03  7.8111563645269291e-03  5.4923294610132499e-03  4.3019984902065746e-03  3.2849752668774740e-03  2.4589129454799081e-03  1.8075662796992790e-03  1.3056034340972972e-03  9.2664774603197877e-04  6.4617766698833799e-04  4.4261609130042046e-04  2.9774229009884998e-04  1.9664891579621469e-04  1.2748622128930747e-04  8.1105757929297195e-05  5.0621503230139541e-05  3.0988201427970510e-05  1.8599788567595255e-05  1.0943369985909530e-05  6.3093913189553483e-06  3.5636017348446195e-06  1.9710440790154619e-06  1.0672135944847048e-06  5.6544510934711417e-07  2.9304617640359240e-07  1.4849071194206198e-07  7.3532106942643406e-08  3.5567182896757853e-08  1.6794897995322661e-08  7.7374569337531298e-09  3.4755368279509772e-09  1.5209839858466795e-09  6.4795062920657729e-10  2.6844703215890670e-10  1.0804290575226814e-10  4.2188655213628580e-11  1.5958528689411196e-11  5.8369288739265429e-12  2.0595713524345891e-12  6.9905053712703590e-13  2.2736551184030150e-13  7.0495799866114756e-14  2.0680747023224088e-14  5.6740674831265105e-15  1.4273657568807997e-15  3.1647704972408092e-16  5.5812025385646678e-17  4.6303551699692549e-18  -1.9160575832823165e-18  -1.3445996784736735e-18  -5.4094570897498370e-19  -1.7225097427132115e-19  -4.5957525127880245e-20  -1.0318408746809034e-20  -3.2774036198424108e-21  1.4498269831703931e-02  1.4522163708672398e-02  1.4293365333795055e-02  1.3543584981913385e-02  1.1482715088968273e-02  5.4859265270295835e-03  6.2148577528546535e-03  4.5312429097475598e-03  3.6135666023385748e-03  2.8053363622152884e-03  2.1288403600816614e-03  1.5824023343035745e-03  1.1533275658250105e-03  8.2462767393381249e-04  5.7851210250815788e-04  3.9823150771720332e-04  2.6896344704699089e-04  1.7821666544251807e-04  1.1583297012083539e-04  7.3834511021426724e-05  4.6147820302859429e-05  2.8275204076088107e-05  1.6979181000426745e-05  9.9899916100127927e-06  5.7573884421632863e-06  3.2491845983916782e-06  1.7949554054472792e-06  9.7029438067625247e-07  5.1304677122362246e-07  2.6523422660531312e-07  1.3400558560194226e-07  6.6133454963786003e-08  3.1863146132961236e-08  1.4978413076786004e-08  6.8653901021079251e-09  3.0659552906245234e-09  1.3329246082504173e-09  5.6360140979011468e-10  2.3152064128932469e-10  9.2278960913543229e-11  3.5632890523332796e-11  1.3305667198540936e-11  4.7937235196366937e-12  1.6615300421869878e-12  5.5195253019639488e-13  1.7482944267215017e-13  5.2411508352716511e-14  1.4701787943812473e-14  3.7842868839374276e-15  8.6004205074605040e-16  1.5627797788865349e-16  1.3931710621535667e-17  -5.2121957630652522e-18  -3.8602776400554933e-18  -1.5993591815512723e-18  -5.2263908018036681e-19  -1.4300062150362676e-19  -3.2264096750579315e-20  -5.2796589337152299e-21  -5.7906237718651513e-22  1.1076773925238637e-02  1.1180618663187349e-02  1.0710588886147810e-02  9.9371549387654787e-03  8.5351119087319818e-03  7.5841829003489474e-03  6.6275815113258536e-03  5.5056783465729699e-03  4.6240541631051161e-03  3.8128121878421360e-03  3.0687349704109526e-03  2.4099770238055285e-03  1.8492593853093521e-03  1.3882152309037819e-03  1.0204150320891388e-03  7.3483889506686549e-04  5.1861576435236042e-04  3.5877480509905894e-04  2.4330654824344957e-04  1.6174613005557402e-04  1.0540070224904241e-04  6.7318398282918969e-05  4.2134965794635150e-05  2.5839987523845820e-05  1.5523599786652138e-05  9.1335755816823244e-06  5.2614792690586854e-06  2.9667444348498645e-06  1.6368119571170985e-06  8.8329457816962290e-07  4.6604316030974749e-07  2.4030826217133391e-07  1.2103859268958046e-07  5.9519785793533281e-08  2.8557933203674954e-08  1.3360949781251449e-08  6.0908295514186478e-09  2.7032526652516651e-09  1.1669715068406321e-09  4.8947109459314344e-10  1.9922204740914931e-10  7.8566769381591828e-11  2.9966983357837878e-11  1.1030014455513469e-11  3.9066462381313488e-12  1.3265164704056380e-12  4.2963881742770267e-13  1.3177252796095283e-13  3.7847293094249503e-14  9.9893640376211374e-15  2.3349161963538592e-15  4.4024801897729288e-16  4.3489305624750462e-17  -1.3414831982302208e-17  -1.0839236332330522e-17  -4.6621958188474425e-18  -1.5712228576211749e-18  -4.4311971607604274e-19  -1.0353664759726577e-19  -1.8020208876037014e-20  -8.3677021816689790e-22  1.5166870514520897e-21  8.7802953745319962e-03  8.9025037654379708e-03  8.4120072151211041e-03  7.7731422508609061e-03  6.8401377251103793e-03  5.7309173026922943e-03  4.8114818618042871e-03  4.0201014142632902e-03  3.3146693665260045e-03  2.6801625135470328e-03  2.1199622282570686e-03  1.6395871149740215e-03  1.2402086072758845e-03  9.1790392424861489e-04  6.6499286066142493e-04  4.7172598305387343e-04  3.2773258199196077e-04  2.2303351763377583e-04  1.4868749501726529e-04  9.7104766912832268e-05  6.2121121033708267e-05  3.8925958253117512e-05  2.3887768189351482e-05  1.4353664847144186e-05  8.4433518590491011e-06  4.8608576250416802e-06  2.7380064974447690e-06  1.5084345772179068e-06  8.1250556512572184e-07  4.2771323460209314e-07  2.1994034066252997e-07  1.1042327870785242e-07  5.4096964893921746e-08  2.5844374050455026e-08  1.2031798321872965e-08  5.4540169488375416e-09  2.4050515113338573e-09  1.0306077630220841e-09  4.2863256234158575e-10  1.7276715718678032e-10  6.7367588484069209e-11  2.5357422281071237e-11  9.1880517382799711e-12  3.1933124788684964e-12  1.0593470835423643e-12  3.3311293395911163e-13  9.8241733259008787e-14  2.6696241122699186e-14  6.4601515659562315e-15  1.2811433807999822e-15  1.4748532053312111e-16  -3.0347703687485303e-17  -2.9451666818602323e-17  -1.3397555656571480e-17  -4.7037961881098386e-18  -1.3791727454250926e-18  -3.3682266619200650e-19  -6.2989997645993984e-20  -5.3787168735484252e-21  2.5856017290102404e-21  2.8994385829354144e-21  7.4876968158217733e-03  7.6120946406456067e-03  7.1523195232532019e-03  6.6207001263151547e-03  5.9180077895512641e-03  5.1186454552341280e-03  4.3534726734208518e-03  3.6519788569869252e-03  3.0168227296840785e-03  2.4463459889545987e-03  1.9429496723603872e-03  1.5097843965459295e-03  1.1474575856721336e-03  8.5302326651926614e-04  6.2041295536052982e-04  4.4158197539933929e-04  3.0764324384095591e-04  2.0983325641189582e-04  1.4013109240739141e-04  9.1632896256527645e-05  5.8670593279295631e-05  3.6780645153730532e-05  2.2572850674676110e-05  1.3559821868035201e-05  7.9713118318709587e-06  4.5846693902078488e-06  2.5790084443719833e-06  1.4184488221798472e-06  7.6246820977184775e-07  4.0039363565127051e-07  2.0530413063772954e-07  1.0273442721219161e-07  5.0139064266755302e-08  2.3849492308094406e-08  1.1048057998356789e-08  4.9797774225037620e-09  2.1817517055928191e-09  9.2800891983978652e-10  3.8267957770105302e-10  1.5272662098645265e-10  5.8868410300129870e-11  2.1857272714916262e-11  7.7906996029726606e-12  2.6535982664818081e-12  8.5816078890321679e-13  2.6095658362479068e-13  7.3441633071684690e-14  1.8572283722509751e-14  3.9435875786478769e-15  5.5288597717105036e-16  -4.5304878880519016e-17  -7.5096342998025277e-17  -3.7577074154031576e-17  -1.3991955095669627e-17  -4.3223597361888800e-18  -1.1189957288557971e-18  -2.2861160417087014e-19  -2.7046165504025515e-20  4.6267252726061716e-21  4.9088834546817557e-21  3.6058733588660926e-21  7.0798968113552387e-03  7.2380790607708074e-03  6.7528545040687086e-03  6.2574538521533518e-03  5.6217018784709008e-03  4.9043591639084750e-03  4.1911460292924241e-03  3.5235288944515130e-03  2.9140406945806887e-03  2.3656947008242972e-03  1.8814994217811044e-03  1.4642614530695336e-03  1.1145314768755150e-03  8.2966366591872621e-04  6.0410927258086893e-04  4.3035908489171682e-04  3.0001639646491326e-04  2.0470856175972522e-04  1.3672780404017863e-04  8.9399302106753868e-05  5.7222471460672703e-05  3.5853222502334920e-05  2.1987077983323004e-05  1.3195065064977679e-05  7.7475630766003241e-06  4.4495118822443911e-06  2.4987132892540139e-06  1.3715768658284323e-06  7.3560583871751091e-07  3.8529227267844154e-07  1.9698331471447236e-07  9.8244557698896439e-08  4.7768456356610150e-08  2.2625775672518059e-08  1.0430999200759109e-08  4.6760993451037767e-09  2.0360250668726532e-09  8.5988914580784292e-10  3.5169475722278412e-10  1.3902888265910459e-10  5.2990969693075746e-11  1.9413321577748630e-11  6.8076733182410003e-12  2.2719691516623378e-12  7.1556076029797783e-13  2.0985308571158584e-13  5.5961024546865669e-14  1.2903305719005108e-14  2.2182502585210290e-15  6.8306739697962430e-17  -1.6697822119367548e-16  -1.0043901048481715e-16  -4.0869428269918325e-17  -1.3543187538205926e-17  -3.7738816424128930e-18  -8.5541922939896904e-19  -1.3269364411091326e-19  1.9320798432396854e-21  1.1910136088113207e-20  6.3165740069116381e-21  3.6700557126090991e-21  </DataArray> 
</PointData> 
</Piece>
</UnstructuredGrid>
</VTKFile>