<?xml version="1.0"?>
<VTKFile type="UnstructuredGrid"  version="0.1"  >
<UnstructuredGrid>
<Piece  NumberOfPoints="670" NumberOfCells="1192">
<Points>
<DataArray  type="Float64"  NumberOfComponents="3"  format="ascii">0 0 0  0.04 -1.31357e-10 0  0.0400579 0.0400582 0  0 0.04 0  0.08 -2.62713e-10 0  0.080123 0.0401093 0  0.12 -3.9407e-10 0  0.120183 0.040127 0  0.16 -5.25427e-10 0  0.160176 0.0400597 0  0.2 -6.56784e-10 0  0.199997 0.0399142 0  0.24 -7.8814e-10 0  0.239816 0.0400642 0  0.28 -9.19497e-10 0  0.279804 0.0401377 0  0.32 -1.05085e-09 0  0.319855 0.0401297 0  0.36 -1.18221e-09 0  0.359906 0.0400945 0  0.4 -1.31357e-09 0  0.399941 0.0400609 0  0.44 -1.44492e-09 0  0.439962 0.0400367 0  0.48 -1.57628e-09 0  0.479975 0.0400214 0  0.52 -1.70764e-09 0  0.519983 0.0400122 0  0.5600000000000001 -1.83899e-09 0  0.559987 0.0400069 0  0.6 -1.97035e-09 0  0.59999 0.040004 0  0.64 -2.10171e-09 0  0.639993 0.0400023 0  0.68 -2.23306e-09 0  0.679994 0.0400013 0  0.72 -2.36442e-09 0  0.7199950000000001 0.0400008 0  0.76 -2.49578e-09 0  0.759996 0.0400005 0  0.8 -2.62713e-09 0  0.799997 0.0400002 0  0.84 -2.75849e-09 0  0.839997 0.0400001 0  0.88 -2.88985e-09 0  0.8799979999999999 0.04 0  0.92 -3.0212e-09 0  0.919999 0.0399999 0  0.96 -3.15256e-09 0  0.959999 0.0399998 0  1 -3.28392e-09 0  1 0.0399998 0  1.04 -3.41527e-09 0  1.04 0.0399998 0  1.08 -3.54663e-09 0  1.08 0.0399998 0  1.12 -3.67799e-09 0  1.12 0.0399998 0  1.16 -3.80934e-09 0  1.16 0.0399999 0  1.2 -3.9407e-09 0  1.2 0.04 0  1.24 -4.07206e-09 0  1.24 0.04 0  1.28 -4.20341e-09 0  1.28 0.0400001 0  1.32 -4.33477e-09 0  1.32 0.0400001 0  1.36 -4.46613e-09 0  1.36 0.04 0  1.4 -4.59748e-09 0  1.4 0.04 0  1.44 -4.72884e-09 0  1.44 0.04 0  1.48 -4.8602e-09 0  1.48 0.04 0  1.52 -4.99156e-09 0  1.52 0.04 0  1.56 -5.12291e-09 0  1.56 0.04 0  1.6 -5.25427e-09 0  1.6 0.0400001 0  1.64 -5.38563e-09 0  1.64 0.0400001 0  1.68 -5.51698e-09 0  1.68 0.04 0  1.72 -5.64834e-09 0  1.72 0.04 0  1.76 -5.7797e-09 0  1.76 0.04 0  1.8 -5.91105e-09 0  1.8 0.04 0  1.84 -6.04241e-09 0  1.84 0.04 0  1.88 -6.17377e-09 0  1.88 0.0400001 0  1.92 -6.30512e-09 0  1.92 0.0400001 0  1.96 -6.43648e-09 0  1.96 0.0400001 0  2 -6.56784e-09 0  2 0.0400001 0  2.04 -6.69919e-09 0  2.04 0.0400001 0  2.08 -6.83055e-09 0  2.08 0.04 0  2.12 -6.96191e-09 0  2.12 0.04 0  2.16 -7.09326e-09 0  2.16 0.0400001 0  2.2 -7.22462e-09 0  2.2 0.04 0  2.24 -7.35598e-09 0  2.24 0.04 0  2.28 -7.48733e-09 0  2.28 0.0399999 0  2.32 -7.618690000000001e-09 0  2.32 0.04 0  2.36 -7.750049999999999e-09 0  2.36 0.04 0  2.4 -7.8814e-09 0  2.4 0.04 0  0.0401088 0.0801235 0  0 0.08 0  0.0802509 0.0802518 0  0.120434 0.0803392 0  0.160522 0.0801977 0  0.199995 0.0795328 0  0.239464 0.0802049 0  0.279544 0.08035689999999999 0  0.319711 0.0802867 0  0.359828 0.08018740000000001 0  0.399896 0.0801123 0  0.439933 0.0800646 0  0.479955 0.0800365 0  0.519968 0.08002049999999999 0  0.559976 0.0800116 0  0.599982 0.0800066 0  0.6399860000000001 0.0800039 0  0.679989 0.0800023 0  0.719991 0.0800014 0  0.759992 0.0800008 0  0.799994 0.0800004 0  0.839995 0.08000019999999999 0  0.879996 0.0799999 0  0.919997 0.07999970000000001 0  0.959999 0.0799996 0  1 0.0799995 0  1.04 0.0799995 0  1.08 0.0799996 0  1.12 0.07999970000000001 0  1.16 0.0799998 0  1.2 0.08 0  1.24 0.0800001 0  1.28 0.0800001 0  1.32 0.0800001 0  1.36 0.08 0  1.4 0.0799999 0  1.44 0.0799999 0  1.48 0.0799999 0  1.52 0.0799999 0  1.56 0.08 0  1.6 0.0800001 0  1.64 0.0800001 0  1.68 0.08 0  1.72 0.0799999 0  1.76 0.0799999 0  1.8 0.0799999 0  1.84 0.0799999 0  1.88 0.08 0  1.92 0.0800001 0  1.96 0.0800001 0  2 0.0800001 0  2.04 0.08 0  2.08 0.0799999 0  2.12 0.0799999 0  2.16 0.08 0  2.2 0.08 0  2.24 0.0799999 0  2.28 0.0799998 0  2.32 0.0799999 0  2.36 0.0799999 0  2.4 0.08 0  0.0401262 0.120184 0  0 0.12 0  0.0803378 0.120435 0  0.120779 0.12078 0  0.161485 0.120859 0  0.199996 0.117814 0  0.238503 0.120866 0  0.279195 0.120798 0  0.319616 0.120473 0  0.359799 0.120256 0  0.39988 0.120136 0  0.439921 0.120073 0  0.479944 0.120039 0  0.519958 0.120022 0  0.5599690000000001 0.120012 0  0.599976 0.120007 0  0.639981 0.120004 0  0.679985 0.120002 0  0.719987 0.120002 0  0.7599900000000001 0.120001 0  0.799991 0.12 0  0.839993 0.12 0  0.879995 0.12 0  0.919996 0.12 0  0.959998 0.119999 0  1 0.119999 0  1.04 0.119999 0  1.08 0.119999 0  1.12 0.12 0  1.16 0.12 0  1.2 0.12 0  1.24 0.12 0  1.28 0.12 0  1.32 0.12 0  1.36 0.12 0  1.4 0.12 0  1.44 0.12 0  1.48 0.12 0  1.52 0.12 0  1.56 0.12 0  1.6 0.12 0  1.64 0.12 0  1.68 0.12 0  1.72 0.12 0  1.76 0.12 0  1.8 0.12 0  1.84 0.12 0  1.88 0.12 0  1.92 0.12 0  1.96 0.12 0  2 0.12 0  2.04 0.12 0  2.08 0.12 0  2.12 0.12 0  2.16 0.12 0  2.2 0.12 0  2.24 0.12 0  2.28 0.12 0  2.32 0.12 0  2.36 0.12 0  2.4 0.12 0  0.0400582 0.160177 0  0 0.16 0  0.0801954 0.160525 0  0.120857 0.161488 0  0.164645 0.164645 0  0.2 0.15 0  0.235355 0.164645 0  0.279119 0.161498 0  0.319759 0.16055 0  0.359874 0.160228 0  0.399906 0.160104 0  0.439925 0.160051 0  0.479941 0.160027 0  0.519954 0.160014 0  0.559964 0.160008 0  0.5999719999999999 0.160005 0  0.639978 0.160003 0  0.679982 0.160002 0  0.719985 0.160001 0  0.759988 0.160001 0  0.79999 0.16 0  0.839992 0.16 0  0.8799940000000001 0.16 0  0.919996 0.159999 0  0.959998 0.159999 0  1 0.159999 0  1.04 0.159999 0  1.08 0.159999 0  1.12 0.16 0  1.16 0.16 0  1.2 0.16 0  1.24 0.16 0  1.28 0.16 0  1.32 0.16 0  1.36 0.16 0  1.4 0.16 0  1.44 0.16 0  1.48 0.16 0  1.52 0.16 0  1.56 0.16 0  1.6 0.16 0  1.64 0.16 0  1.68 0.16 0  1.72 0.16 0  1.76 0.16 0  1.8 0.16 0  1.84 0.16 0  1.88 0.16 0  1.92 0.16 0  1.96 0.16 0  2 0.16 0  2.04 0.16 0  2.08 0.16 0  2.12 0.16 0  2.16 0.16 0  2.2 0.16 0  2.24 0.16 0  2.28 0.16 0  2.32 0.16 0  2.36 0.16 0  2.4 0.16 0  0.0399111 0.2 0  0 0.2 0  0.0795281 0.2 0  0.117811 0.2 0  0.15 0.2 0  0.282167 0.2 0  0.25 0.2 0  0.320429 0.2 0  0.36003 0.200001 0  0.399944 0.200001 0  0.439934 0.200001 0  0.479942 0.200001 0  0.519953 0.200001 0  0.559963 0.200001 0  0.59997 0.200001 0  0.639976 0.200001 0  0.6799809999999999 0.200001 0  0.719984 0.200001 0  0.759987 0.200001 0  0.799989 0.2 0  0.839991 0.2 0  0.879993 0.2 0  0.919996 0.199999 0  0.959998 0.199999 0  1 0.199999 0  1.04 0.199999 0  1.08 0.199999 0  1.12 0.2 0  1.16 0.2 0  1.2 0.2 0  1.24 0.2 0  1.28 0.2 0  1.32 0.2 0  1.36 0.2 0  1.4 0.2 0  1.44 0.2 0  1.48 0.2 0  1.52 0.2 0  1.56 0.2 0  1.6 0.2 0  1.64 0.2 0  1.68 0.2 0  1.72 0.2 0  1.76 0.2 0  1.8 0.2 0  1.84 0.2 0  1.88 0.2 0  1.92 0.2 0  1.96 0.2 0  2 0.2 0  2.04 0.2 0  2.08 0.2 0  2.12 0.2 0  2.16 0.2 0  2.2 0.2 0  2.24 0.2 0  2.28 0.2 0  2.32 0.2 0  2.36 0.2 0  2.4 0.2 0  0.0400582 0.239823 0  0 0.24 0  0.0801953 0.239475 0  0.120857 0.238513 0  0.164645 0.235355 0  0.279119 0.238502 0  0.235355 0.235355 0  0.319759 0.239451 0  0.359873 0.239774 0  0.399905 0.239898 0  0.439925 0.239951 0  0.479941 0.239976 0  0.519954 0.239988 0  0.559964 0.239994 0  0.5999719999999999 0.239997 0  0.639977 0.239999 0  0.679982 0.24 0  0.719985 0.24 0  0.759987 0.24 0  0.79999 0.24 0  0.839992 0.24 0  0.8799940000000001 0.24 0  0.919996 0.239999 0  0.959998 0.239999 0  1 0.239999 0  1.04 0.239999 0  1.08 0.239999 0  1.12 0.24 0  1.16 0.24 0  1.2 0.24 0  1.24 0.24 0  1.28 0.24 0  1.32 0.24 0  1.36 0.24 0  1.4 0.24 0  1.44 0.24 0  1.48 0.24 0  1.52 0.24 0  1.56 0.24 0  1.6 0.24 0  1.64 0.24 0  1.68 0.24 0  1.72 0.24 0  1.76 0.24 0  1.8 0.24 0  1.84 0.24 0  1.88 0.24 0  1.92 0.24 0  1.96 0.24 0  2 0.24 0  2.04 0.24 0  2.08 0.24 0  2.12 0.24 0  2.16 0.24 0  2.2 0.24 0  2.24 0.24 0  2.28 0.24 0  2.32 0.24 0  2.36 0.24 0  2.4 0.24 0  0.0401261 0.279816 0  0 0.28 0  0.0803376 0.279565 0  0.120778 0.27922 0  0.161485 0.279141 0  0.2 0.25 0  0.199996 0.282186 0  0.238503 0.279135 0  0.279195 0.279202 0  0.319616 0.279528 0  0.359799 0.279745 0  0.39988 0.279865 0  0.43992 0.279929 0  0.479944 0.279962 0  0.519958 0.27998 0  0.559968 0.27999 0  0.599976 0.279995 0  0.639981 0.279998 0  0.679984 0.279999 0  0.719987 0.28 0  0.759989 0.28 0  0.799991 0.28 0  0.839993 0.28 0  0.879995 0.28 0  0.919997 0.279999 0  0.959998 0.279999 0  1 0.279999 0  1.04 0.279999 0  1.08 0.28 0  1.12 0.28 0  1.16 0.28 0  1.2 0.28 0  1.24 0.28 0  1.28 0.28 0  1.32 0.28 0  1.36 0.28 0  1.4 0.28 0  1.44 0.28 0  1.48 0.28 0  1.52 0.28 0  1.56 0.28 0  1.6 0.28 0  1.64 0.28 0  1.68 0.28 0  1.72 0.28 0  1.76 0.28 0  1.8 0.28 0  1.84 0.28 0  1.88 0.28 0  1.92 0.28 0  1.96 0.28 0  2 0.28 0  2.04 0.28 0  2.08 0.28 0  2.12 0.28 0  2.16 0.28 0  2.2 0.28 0  2.24 0.28 0  2.28 0.28 0  2.32 0.28 0  2.36 0.28 0  2.4 0.28 0  0.0401086 0.319877 0  0 0.32 0  0.08025060000000001 0.319748 0  0.120433 0.319661 0  0.160522 0.319802 0  0.199995 0.320467 0  0.239464 0.319795 0  0.279543 0.319643 0  0.31971 0.319714 0  0.359828 0.319813 0  0.399895 0.319889 0  0.439933 0.319937 0  0.479955 0.319965 0  0.519968 0.319981 0  0.559976 0.31999 0  0.599982 0.319995 0  0.6399860000000001 0.319998 0  0.679989 0.319999 0  0.719991 0.32 0  0.759992 0.32 0  0.799994 0.32 0  0.839995 0.32 0  0.879996 0.32 0  0.919998 0.32 0  0.959999 0.32 0  1 0.32 0  1.04 0.32 0  1.08 0.32 0  1.12 0.32 0  1.16 0.32 0  1.2 0.32 0  1.24 0.32 0  1.28 0.32 0  1.32 0.32 0  1.36 0.32 0  1.4 0.32 0  1.44 0.32 0  1.48 0.32 0  1.52 0.32 0  1.56 0.32 0  1.6 0.32 0  1.64 0.32 0  1.68 0.32 0  1.72 0.32 0  1.76 0.32 0  1.8 0.32 0  1.84 0.32 0  1.88 0.32 0  1.92 0.32 0  1.96 0.32 0  2 0.32 0  2.04 0.32 0  2.08 0.32 0  2.12 0.32 0  2.16 0.32 0  2.2 0.32 0  2.24 0.32 0  2.28 0.32 0  2.32 0.32 0  2.36 0.32 0  2.4 0.32 0  0.0400579 0.359942 0  0 0.36 0  0.0801229 0.359891 0  0.120183 0.359873 0  0.160175 0.35994 0  0.199997 0.360086 0  0.239816 0.359936 0  0.279804 0.359862 0  0.319855 0.359871 0  0.359906 0.359906 0  0.399941 0.35994 0  0.439962 0.359964 0  0.479975 0.359979 0  0.5199820000000001 0.359989 0  0.559987 0.359994 0  0.59999 0.359997 0  0.639993 0.359998 0  0.679994 0.359999 0  0.7199950000000001 0.36 0  0.759996 0.36 0  0.799997 0.36 0  0.839997 0.36 0  0.8799979999999999 0.36 0  0
[...]
<PointData  Scalars="f_10391-0"> 
<DataArray  type="Float64"  Name="f_10391-0"  format="ascii">2.7147446298848184e-02  2.7540053013666924e-02  2.8305279097021508e-02  2.7469676432856319e-02  2.7469586695035221e-02  2.9074812143442881e-02  2.5214723862680380e-02  2.6624023715457301e-02  2.1065644561931437e-02  2.1642413200960390e-02  1.6570912153522813e-02  1.6727970581182285e-02  1.2501087503263146e-02  1.2476363507782593e-02  9.1506230547814121e-03  9.0615006983331917e-03  6.5422092974455736e-03  6.4467732950408644e-03  4.5834680339917229e-03  4.5039960331348895e-03  3.1507795684859946e-03  3.0915842928811435e-03  2.1255307503122828e-03  2.0839952120410969e-03  1.4065751607508085e-03  1.3784324458374370e-03  9.1245132641973520e-04  8.9382127133860929e-04  5.7978948396130781e-04  5.6767777083173475e-04  3.6058047634144550e-04  3.5282049704883368e-04  2.1931692374681764e-04  2.1441246927264026e-04  1.3036480798331621e-04  1.2731248763379749e-04  7.5676758395635204e-05  7.3805964562569806e-05  4.2873181511167913e-05  4.1745380156060414e-05  2.3688950533773305e-05  2.3021165167307954e-05  1.2757423005266967e-05  1.2369827077486986e-05  6.6920693143551560e-06  6.4716100400046612e-06  3.4171073395287086e-06  3.2944549992703813e-06  1.6973516298352812e-06  1.6307295625509041e-06  8.1961012055340604e-07  7.8428615129488531e-07  3.8446433750244819e-07  3.6622007103134562e-07  1.7506246319794281e-07  1.6588989489482246e-07  7.7316048640719178e-08  7.2831693577567082e-08  3.3090807382233077e-08  3.0961173770982598e-08  1.3711643636692087e-08  1.2730228436055758e-08  5.4947890268952014e-09  5.0563763985830073e-09  2.1269909234083256e-09  1.9373515002404670e-09  7.9419591215974995e-10  7.1485661511582242e-10  2.8558010681036011e-10  2.5351568771382545e-10  9.8700753636944278e-11  8.6199732042024340e-11  3.2709349850251967e-11  2.8014899400590057e-11  1.0363031086191810e-11  8.6680416518230992e-12  3.1267135531428596e-12  2.5395306083201200e-12  8.9375149428818172e-13  6.9908896101392490e-13  2.4025434972947412e-13  1.7869603099981408e-13  6.0061188034274276e-14  4.1570854966427586e-14  1.3705071826747370e-14  8.4600519041367625e-15  2.7538261096307756e-15  1.3604065745038499e-15  4.4608903806563150e-16  1.0385112319005457e-16  3.9756611133557207e-17  -3.6234762443682392e-17  -8.0697933447611773e-18  -2.2642700551002453e-17  -5.7688939478038272e-18  -7.8969455638323011e-18  -2.0254165378460592e-18  -2.1277295821717702e-18  -5.3966045593178441e-19  -4.6261993274137959e-19  -1.1558654003857333e-19  -7.6479074750231387e-20  -1.8913603204920351e-20  -6.5329324668745753e-21  -1.6795665873952249e-21  1.3797167854497869e-21  2.7702531805963214e-22  8.7804924943016977e-22  1.8632626326589837e-22  2.7059316263947786e-22  5.6698945734355380e-23  5.9802514680788531e-23  1.2264748219239165e-23  9.3632184371276133e-24  1.8768753848999992e-24  6.3745970729381292e-25  1.2658882949478541e-25  -1.9667519752543221e-25  -3.9009894821580122e-26  -1.0069121252339920e-25  -3.7573293373769336e-26  -5.0320216885948512e-26  2.8882853097203773e-02  2.7208773347330736e-02  3.2272735007649100e-02  3.0198052791617424e-02  2.3021492218270444e-02  1.6968459029513515e-02  1.2258080008845497e-02  8.7172131611049850e-03  6.1324854959166966e-03  4.2633265874488383e-03  2.9218172341780972e-03  1.9696140812715660e-03  1.3035948757055510e-03  8.4591318634033314e-04  5.3755744893114847e-04  3.3419862740970575e-04  2.0309129950552899e-04  1.2054190724898576e-04  6.9826988514551388e-05  3.9449373232098698e-05  2.1720651897859982e-05  1.1647566372829075e-05  6.0787932971421726e-06  3.0853761413514004e-06  1.5218648330888273e-06  7.2894793682317039e-07  3.3877176542406896e-07  1.5261842001221738e-07  6.6583306347343588e-08  2.8099672539751951e-08  1.1457018133238346e-08  4.5066324864219830e-09  1.7073065478103827e-09  6.2169214968628722e-10  2.1705688313840734e-10  7.2436705962737707e-11  2.3013212526942513e-11  6.9222901985127100e-12  1.9560022825371714e-12  5.1297211173601469e-13  1.2231999262036237e-13  2.5458615592715743e-14  4.1565680230456428e-15  3.0246479319599108e-16  -1.2902202754934831e-16  -7.9435238552939239e-17  -2.8192684878168259e-17  -7.7688489241957169e-18  -1.7287794119614204e-18  -2.9165240623567304e-19  -2.4755718996927343e-20  5.9676220113652021e-21  3.7720695971328626e-21  1.1879261799534416e-21  2.6935487200716159e-22  4.3291519526876707e-23  3.0005650112112815e-24  -9.7695593469613818e-25  -4.9462112467968598e-25  -1.3326557716570246e-25  -4.6839353166839720e-26  2.6169279142704543e-02  2.4698516217293496e-02  2.9919932074701266e-02  2.9081879338346522e-02  2.2751548218119796e-02  1.6606515486928888e-02  1.1471407701104728e-02  7.9425937629470141e-03  5.5411561503547800e-03  3.8513840866956739e-03  2.6464770821296468e-03  1.7898994981148382e-03  1.1883864878859253e-03  7.7321447279579149e-04  4.9237968995787917e-04  3.0657288166240434e-04  1.8647665307607966e-04  1.1072189151482676e-04  6.4128499423347695e-05  3.6204137831421401e-05  1.9909959704637133e-05  1.0657717843084755e-05  5.5492418255869936e-06  2.8084189156270667e-06  1.3803659624307522e-06  6.5837169009388759e-07  3.0444923391934190e-07  1.3635707063055689e-07  5.9084950883711128e-08  2.4738285244671976e-08  9.9937858602670952e-09  3.8888976865339750e-09  1.4547380450644876e-09  5.2183797618491028e-10  1.7895127650989677e-10  5.8429684660897519e-11  1.8065969875477234e-11  5.2484065311040322e-12  1.4155405460117260e-12  3.4728881291417454e-13  7.4434749968583439e-14  1.2547098417833008e-14  9.6377798597981181e-16  -3.9882343743587297e-16  -2.5600974583794392e-16  -9.3764035938544866e-17  -2.6619733255541128e-17  -6.1003243203834803e-18  -1.0599717055864422e-18  -9.2849742685142585e-20  2.2871317675657166e-20  1.4920006588272127e-20  4.8405365995547965e-21  1.1306059160590689e-21  1.8724237873728137e-22  1.3402553451338577e-23  -4.4700533339073540e-24  -2.3350709257174448e-24  -6.3628726832221859e-25  -1.1753757946762324e-25  -2.3700257199064742e-26  2.0940606488911152e-02  2.0314753063277943e-02  2.2462646218603062e-02  2.2427654325890632e-02  2.0156543252073222e-02  1.5779590217366045e-02  9.4302598890094042e-03  6.5415265965565851e-03  4.6531964562047581e-03  3.2892571933453036e-03  2.2889047015761986e-03  1.5625699042131074e-03  1.0447074148200414e-03  6.8331581042238880e-04  4.3685962007220170e-04  2.7278874410186741e-04  1.6625544663598170e-04  9.8833015130572014e-05  5.7268555679040306e-05  3.2324019489757407e-05  1.7760127796999365e-05  9.4922014902254595e-06  4.9314235103384166e-06  2.4884428600504673e-06  1.2186231115320205e-06  5.7863822290813929e-07  2.6615141297872007e-07  1.1845115260041441e-07  5.0944272428779946e-08  2.1143563539022479e-08  8.4539273864787874e-09  3.2498853401603570e-09  1.1982457307206119e-09  4.2243496908019053e-10  1.4183407470998841e-10  4.5109546028858131e-11  1.3486106176549626e-11  3.7456524290306856e-12  9.4745250519240980e-13  2.0989605158631460e-13  3.6852944514994875e-14  3.1412588107733514e-15  -1.1159997760476795e-15  -7.7202661893178260e-16  -2.9412299851369439e-16  -8.6399103981495741e-17  -2.0468816130985569e-17  -3.6854374638574716e-18  -3.4185254865436145e-19  7.9731463228934059e-20  5.5114408873375991e-20  1.8522906372365446e-20  4.4692897122946523e-21  7.6487282717507893e-22  5.7206266370675961e-23  -1.9029653662949076e-23  -1.0327630759278499e-23  -2.9065232564699608e-24  -5.5272981486575166e-25  -5.4700921355228290e-26  1.2139471939389149e-26  1.5888046193954331e-02  1.5696624007589650e-02  1.6231202084447369e-02  1.6025982062990135e-02  1.5326540504084432e-02  4.6633102079234384e-03  5.6167413414122099e-03  3.6203412744714170e-03  2.6683620399114891e-03  1.9005497585302205e-03  1.3168788353811148e-03  8.8962436717331572e-04  5.8630427249340127e-04  3.7695163211843544e-04  2.3636173208043261e-04  1.4447991173066865e-04  8.6052659029659046e-05  4.9913567635274174e-05  2.8177569375387853e-05  1.5472289105405336e-05  8.2578068303648945e-06  4.2807130982879931e-06  2.1535484090467134e-06  1.0505357884783084e-06  4.9643027785364621e-07  2.2700882218203064e-07  1.0032595733574745e-07  4.2790971643418896e-08  1.7585041325617443e-08  6.9490509808406834e-09  2.6342025736297772e-09  9.5498890132868066e-10  3.2981275885215699e-10  1.0793314045961121e-10  3.3219106596985971e-11  9.5056111114400882e-12  2.4805904139110577e-12  5.6860766365410739e-13  1.0419836319744271e-13  9.8915507886071630e-15  -2.9227069482823736e-15  -2.2159078999728696e-15  -8.8098143223609044e-16  -2.6823335118849514e-16  -6.5802006012722510e-17  -1.2309416013770988e-17  -1.2210558143596503e-18  2.5983810636825542e-19  1.9334274010146568e-19  6.7516522842575341e-20  1.6857252643637316e-20  2.9872198284293909e-21  2.3545351510657257e-22  -7.6520551138925986e-23  -4.3391370589908082e-23  -1.2623349074247480e-23  -2.4805589969333808e-24  -2.6605092537904421e-25  3.3697052829311259e-26  4.7087811512100315e-26  1.1684882382034146e-02  1.1689789014924831e-02  1.1539968766453823e-02  1.0890767333669312e-02  9.0202028508205041e-03  3.6226491993628248e-03  4.2501739926656332e-03  2.8436070489340293e-03  2.1341482719708172e-03  1.5459332897098674e-03  1.0859839345186474e-03  7.4160356279594653e-04  4.9287299114256222e-04  3.1894172494522938e-04  2.0096770389618535e-04  1.2328581757160682e-04  7.3607216596065846e-05  4.2754086847809025e-05  2.4146609067071787e-05  1.3252219983885887e-05  7.0631372462134726e-06  3.6530439900667976e-06  1.8318961696288971e-06  8.8986843474219663e-07  4.1828585768492712e-07  1.9003673563387281e-07  8.3329481389615319e-08  3.5208070842900858e-08  1.4306254350644872e-08  5.5771341840433392e-09  2.0796886304347895e-09  7.3893383561902627e-10  2.4886665403729203e-10  7.8862118604477982e-11  2.3250506820062454e-11  6.2590770167259013e-12  1.4838318860512073e-12  2.8331900702549554e-13  2.9476254753301905e-14  -7.3936500479048814e-15  -6.1614312142364262e-15  -2.5562719816417778e-15  -8.0694695921046253e-16  -2.0511452812369583e-16  -3.9917513907948141e-17  -4.2488796346121398e-18  8.0685436108251989e-19  6.5497502092451303e-19  2.3831740195165903e-19  6.1714284431998126e-20  1.1366515837754858e-20  9.5981335884857624e-22  -2.9253702822582643e-22  -1.7567916188249717e-22  -5.3060292101754095e-23  -1.0809269564125225e-23  -1.2155532374756332e-24  1.2634728154395004e-25  1.1586414969466388e-25  6.7274797110204071e-26  8.5498475420820886e-03  8.6325519877023214e-03  8.2478299127444303e-03  7.5769131309033656e-03  6.3291076581566512e-03  5.4918186286983806e-03  4.6290970907284408e-03  3.6517540642427909e-03  2.9119240031449840e-03  2.2706576239331141e-03  1.7168245970468181e-03  1.2570659847774258e-03  8.9247640618539165e-04  6.1518006731938618e-04  4.1206462396477104e-04  2.6834058621961945e-04  1.6991912689437496e-04  1.0462176860424289e-04  6.2623085060316673e-05  3.6426675405271966e-05  2.0581944524052434e-05  1.1289814152117226e-05  6.0080608909961975e-06  3.0995386489922446e-06  1.5488077417468846e-06  7.4886120077572104e-07  3.4993613296036926e-07  1.5783281080701459e-07  6.8598122559907025e-08  2.8674958443317437e-08  1.1501382486799262e-08  4.4133890219839794e-09  1.6140338054925928e-09  5.5968268744371222e-10  1.8268591177193241e-10  5.5517251397685312e-11  1.5423231303684654e-11  3.7823630708034553e-12  7.5212075460475903e-13  8.4987889036523421e-14  -1.8247197541565069e-14  -1.6825986628118908e-14  -7.2948762027176185e-15  -2.3916129795848758e-15  -6.3151021606364102e-16  -1.2845671232734869e-16  -1.4888577638109602e-17  2.3432409459919874e-18  2.1630231120042408e-18  8.2705829691863881e-19  2.2366040192456673e-19  4.3270298687194068e-20  4.0813105787429248e-21  -1.0392971316633942e-21  -6.9011429080035351e-22  -2.1927267031983231e-22  -4.6915294194259508e-23  -5.7000193382047050e-24  4.7256759236859150e-25  4.9833413760979900e-25  1.6360826236078972e-25  6.4486357086498328e-26  6.4606083085618927e-03  6.5615353297630080e-03  6.1538485043025459e-03  5.6077008740561471e-03  4.7965609400764646e-03  3.8340453904181244e-03  3.0579821932927194e-03  2.4168567782649193e-03  1.8775973641880636e-03  1.4225840043730589e-03  1.0474805267628748e-03  7.4880859186253208e-04  5.1969545089237978e-04  3.5025506738437369e-04  2.2928017389710928e-04  1.4579024143686028e-04  9.0043586829251037e-05  5.4007947306932767e-05  3.1448962746626860e-05  1.7771097382035121e-05  9.7392864345195859e-06  5.1732765629462514e-06  2.6611984457572909e-06  1.3244779019278538e-06  6.3709214941915384e-07  2.9578529897781925e-07  1.3234471852104098e-07  5.6960165754082964e-08  2.3527598538077906e-08  9.2998577726729320e-09  3.5047100070776708e-09  1.2529549554916238e-09  4.2195536566565487e-10  1.3244590390626447e-10  3.8076295676083937e-11  9.6997795574440470e-12  2.0243762444993626e-12  2.5466860487578882e-13  -4.0996576074349579e-14  -4.5018194118340417e-14  -2.0663652759812298e-14  -7.0939800110791847e-15  -1.9629091521860290e-15  -4.2312136086511887e-16  -5.5569040022712042e-17  5.5780438032273978e-18  6.8920783101354877e-18  2.8378259263045885e-18  8.1454490015306168e-19  1.6912891557242461e-19  1.9025333900786314e-20  -3.1219029638853061e-21  -2.6009955598422032e-21  -8.9525391075147759e-22  -2.0623333118518075e-22  -2.8497123409370190e-23  1.0859920754087054e-24  2.1070570795223678e-24  7.4673470607371521e-25  1.6284907268522742e-25  3.8913767091932949e-26  5.2891477782088352e-03  5.3929600364313818e-03  5.0106939566618844e-03  4.5637492966098155e-03  3.9677969846675324e-03  3.2942138465140822e-03  2.6668534153861975e-03  2.1154765420014158e-03  1.6436731740876174e-03  1.2466506470762469e-03  9.2038896293124468e-04  6.6038457160081917e-04  4.6014455361009896e-04  3.1127687882172669e-04  2.0441263148224991e-04  1.3030203318756815e-04  8.0615469692222968e-05  4.8397975998499804e-05  2.8185498469298392e-05  1.5915544567174512e-05  8.7088987320517959e-06  4.6147791220721669e-06  2.3659029598343604e-06  1.1723610233321910e-06  5.6080584419491532e-07  2.5859551504232664e-07  1.1473828529413302e-07  4.8879281566492668e-08  1.9937986559630061e-08  7.7596897387007087e-09  2.8679123157661814e-09  9.9995654183519741e-10  3.2570820596694986e-10  9.7544768970915645e-11  2.6086598372545053e-11  5.8319021920421981e-12  8.6854025320430755e-13  -5.7758348044819409e-14  -1.1370809960772039e-13  -5.7668226588390662e-14  -2.1170779066323867e-14  -6.2496607687174547e-15  -1.4618309020971117e-15  -2.2880892045249896e-16  4.0001752698371962e-18  2.0221320047795543e-17  9.4954425342423484e-18  2.9785904075235791e-18  6.8399956448138228e-19  9.6667901678128545e-20  -5.1977497438806845e-21  -9.0231639957632320e-21  -3.5580089391357615e-21  -9.1397649074497231e-22  -1.5049087098131102e-22  -3.6371177131342391e-24  7.8808146081947256e-24  3.3343233392371099e-24  8.2444679142480846e-25  1.1641294011202455e-25  -2.1983293763681371e-27  4.9202160883453708e-03  5.0559318690057966e-03  4.6484861578272160e-03  4.2349273210019528e-03  3.7018544058276090e-03  3.1054877668380883e-03  2.5281546428169983e-03  2.0099931988271417e-03  1.5626449493999670e-03  1.1856570504628716e-03  8.7593604330178827e-04  6.2903407372713398e-04  4.3868598685728954e-04  2.9696874841314200e-04  1.9509638447352687e-04  1.2436696050799854e-04  7.6913651822730069e-05  4.6135529862039489e-05  2.6831454810772947e-05  1.5122391857001087e-05  8.2545629565347323e-06  4.3604552762978515e-06  2.2270302271170461e-06  1.0984697514797044e-06  5.2255001389707388e-07  2.3934853960439552e-07  1.0534643173685749e-07  4.4442842442637050e-08  1.7913480055178506e-08  6.8692784660252599e-09  2.4914946105948340e-09  8.4750153360717512e-10  2.6679152664215420e-10  7.5935063944345704e-11  1.8619083140312592e-11  3.4271692933643489e-12  1.5971812183258826e-13  -2.4264687440228733e-13  -1.5308244214288497e-13  -6.2635989236075696e-14  -2.0265768108441686e-14  -5.2799160115152171e-15  -1.0105802959118336e-15  -7.1490181452051309e-17  4.8065978468954825e-17  2.9741281577783102e-17  1.0687029070786812e-17  2.8020103952438286e-18  5.0316254595374875e-19  2.3467068749782738e-20  -2.6015179771261135e-20  -1.3236932845228224e-20  -3.9658090413801581e-21  -7.9813975512441495e-22  -7.1823288463069529e-23  2.2251192988086152e-23  1.3583074057025102e-23  4.0212414759109536e-24  7.4361522807290553e-25  3.8672160485607721e-26  -4.9756036659708169e-26  </DataArray> 
</PointData> 
</Piece>
</UnstructuredGrid>
</VTKFile>