<?xml version="1.0"?>
<VTKFile type="UnstructuredGrid"  version="0.1"  >
<UnstructuredGrid>
<Piece  NumberOfPoints="670" NumberOfCells="1192">
<Points>
<DataArray  type="Float64"  NumberOfComponents="3"  format="ascii">0 0 0  0.04 -1.31357e-10 0  0.0400579 0.0400582 0  0 0.04 0  0.08 -2.62713e-10 0  0.080123 0.0401093 0  0.12 -3.9407e-10 0  0.120183 0.040127 0  0.16 -5.25427e-10 0  0.160176 0.0400597 0  0.2 -6.56784e-10 0  0.199997 0.0399142 0  0.24 -7.8814e-10 0  0.239816 0.0400642 0  0.28 -9.19497e-10 0  0.279804 0.0401377 0  0.32 -1.05085e-09 0  0.319855 0.0401297 0  0.36 -1.18221e-09 0  0.359906 0.0400945 0  0.4 -1.31357e-09 0  0.399941 0.0400609 0  0.44 -1.44492e-09 0  0.439962 0.0400367 0  0.48 -1.57628e-09 0  0.479975 0.0400214 0  0.52 -1.70764e-09 0  0.519983 0.0400122 0  0.5600000000000001 -1.83899e-09 0  0.559987 0.0400069 0  0.6 -1.97035e-09 0  0.59999 0.040004 0  0.64 -2.10171e-09 0  0.639993 0.0400023 0  0.68 -2.23306e-09 0  0.679994 0.0400013 0  0.72 -2.36442e-09 0  0.7199950000000001 0.0400008 0  0.76 -2.49578e-09 0  0.759996 0.0400005 0  0.8 -2.62713e-09 0  0.799997 0.0400002 0  0.84 -2.75849e-09 0  0.839997 0.0400001 0  0.88 -2.88985e-09 0  0.8799979999999999 0.04 0  0.92 -3.0212e-09 0  0.919999 0.0399999 0  0.96 -3.15256e-09 0  0.959999 0.0399998 0  1 -3.28392e-09 0  1 0.0399998 0  1.04 -3.41527e-09 0  1.04 0.0399998 0  1.08 -3.54663e-09 0  1.08 0.0399998 0  1.12 -3.67799e-09 0  1.12 0.0399998 0  1.16 -3.80934e-09 0  1.16 0.0399999 0  1.2 -3.9407e-09 0  1.2 0.04 0  1.24 -4.07206e-09 0  1.24 0.04 0  1.28 -4.20341e-09 0  1.28 0.0400001 0  1.32 -4.33477e-09 0  1.32 0.0400001 0  1.36 -4.46613e-09 0  1.36 0.04 0  1.4 -4.59748e-09 0  1.4 0.04 0  1.44 -4.72884e-09 0  1.44 0.04 0  1.48 -4.8602e-09 0  1.48 0.04 0  1.52 -4.99156e-09 0  1.52 0.04 0  1.56 -5.12291e-09 0  1.56 0.04 0  1.6 -5.25427e-09 0  1.6 0.0400001 0  1.64 -5.38563e-09 0  1.64 0.0400001 0  1.68 -5.51698e-09 0  1.68 0.04 0  1.72 -5.64834e-09 0  1.72 0.04 0  1.76 -5.7797e-09 0  1.76 0.04 0  1.8 -5.91105e-09 0  1.8 0.04 0  1.84 -6.04241e-09 0  1.84 0.04 0  1.88 -6.17377e-09 0  1.88 0.0400001 0  1.92 -6.30512e-09 0  1.92 0.0400001 0  1.96 -6.43648e-09 0  1.96 0.0400001 0  2 -6.56784e-09 0  2 0.0400001 0  2.04 -6.69919e-09 0  2.04 0.0400001 0  2.08 -6.83055e-09 0  2.08 0.04 0  2.12 -6.96191e-09 0  2.12 0.04 0  2.16 -7.09326e-09 0  2.16 0.0400001 0  2.2 -7.22462e-09 0  2.2 0.04 0  2.24 -7.35598e-09 0  2.24 0.04 0  2.28 -7.48733e-09 0  2.28 0.0399999 0  2.32 -7.618690000000001e-09 0  2.32 0.04 0  2.36 -7.750049999999999e-09 0  2.36 0.04 0  2.4 -7.8814e-09 0  2.4 0.04 0  0.0401088 0.0801235 0  0 0.08 0  0.0802509 0.0802518 0  0.120434 0.0803392 0  0.160522 0.0801977 0  0.199995 0.0795328 0  0.239464 0.0802049 0  0.279544 0.08035689999999999 0  0.319711 0.0802867 0  0.359828 0.08018740000000001 0  0.399896 0.0801123 0  0.439933 0.0800646 0  0.479955 0.0800365 0  0.519968 0.08002049999999999 0  0.559976 0.0800116 0  0.599982 0.0800066 0  0.6399860000000001 0.0800039 0  0.679989 0.0800023 0  0.719991 0.0800014 0  0.759992 0.0800008 0  0.799994 0.0800004 0  0.839995 0.08000019999999999 0  0.879996 0.0799999 0  0.919997 0.07999970000000001 0  0.959999 0.0799996 0  1 0.0799995 0  1.04 0.0799995 0  1.08 0.0799996 0  1.12 0.07999970000000001 0  1.16 0.0799998 0  1.2 0.08 0  1.24 0.0800001 0  1.28 0.0800001 0  1.32 0.0800001 0  1.36 0.08 0  1.4 0.0799999 0  1.44 0.0799999 0  1.48 0.0799999 0  1.52 0.0799999 0  1.56 0.08 0  1.6 0.0800001 0  1.64 0.0800001 0  1.68 0.08 0  1.72 0.0799999 0  1.76 0.0799999 0  1.8 0.0799999 0  1.84 0.0799999 0  1.88 0.08 0  1.92 0.0800001 0  1.96 0.0800001 0  2 0.0800001 0  2.04 0.08 0  2.08 0.0799999 0  2.12 0.0799999 0  2.16 0.08 0  2.2 0.08 0  2.24 0.0799999 0  2.28 0.0799998 0  2.32 0.0799999 0  2.36 0.0799999 0  2.4 0.08 0  0.0401262 0.120184 0  0 0.12 0  0.0803378 0.120435 0  0.120779 0.12078 0  0.161485 0.120859 0  0.199996 0.117814 0  0.238503 0.120866 0  0.279195 0.120798 0  0.319616 0.120473 0  0.359799 0.120256 0  0.39988 0.120136 0  0.439921 0.120073 0  0.479944 0.120039 0  0.519958 0.120022 0  0.5599690000000001 0.120012 0  0.599976 0.120007 0  0.639981 0.120004 0  0.679985 0.120002 0  0.719987 0.120002 0  0.7599900000000001 0.120001 0  0.799991 0.12 0  0.839993 0.12 0  0.879995 0.12 0  0.919996 0.12 0  0.959998 0.119999 0  1 0.119999 0  1.04 0.119999 0  1.08 0.119999 0  1.12 0.12 0  1.16 0.12 0  1.2 0.12 0  1.24 0.12 0  1.28 0.12 0  1.32 0.12 0  1.36 0.12 0  1.4 0.12 0  1.44 0.12 0  1.48 0.12 0  1.52 0.12 0  1.56 0.12 0  1.6 0.12 0  1.64 0.12 0  1.68 0.12 0  1.72 0.12 0  1.76 0.12 0  1.8 0.12 0  1.84 0.12 0  1.88 0.12 0  1.92 0.12 0  1.96 0.12 0  2 0.12 0  2.04 0.12 0  2.08 0.12 0  2.12 0.12 0  2.16 0.12 0  2.2 0.12 0  2.24 0.12 0  2.28 0.12 0  2.32 0.12 0  2.36 0.12 0  2.4 0.12 0  0.0400582 0.160177 0  0 0.16 0  0.0801954 0.160525 0  0.120857 0.161488 0  0.164645 0.164645 0  0.2 0.15 0  0.235355 0.164645 0  0.279119 0.161498 0  0.319759 0.16055 0  0.359874 0.160228 0  0.399906 0.160104 0  0.439925 0.160051 0  0.479941 0.160027 0  0.519954 0.160014 0  0.559964 0.160008 0  0.5999719999999999 0.160005 0  0.639978 0.160003 0  0.679982 0.160002 0  0.719985 0.160001 0  0.759988 0.160001 0  0.79999 0.16 0  0.839992 0.16 0  0.8799940000000001 0.16 0  0.919996 0.159999 0  0.959998 0.159999 0  1 0.159999 0  1.04 0.159999 0  1.08 0.159999 0  1.12 0.16 0  1.16 0.16 0  1.2 0.16 0  1.24 0.16 0  1.28 0.16 0  1.32 0.16 0  1.36 0.16 0  1.4 0.16 0  1.44 0.16 0  1.48 0.16 0  1.52 0.16 0  1.56 0.16 0  1.6 0.16 0  1.64 0.16 0  1.68 0.16 0  1.72 0.16 0  1.76 0.16 0  1.8 0.16 0  1.84 0.16 0  1.88 0.16 0  1.92 0.16 0  1.96 0.16 0  2 0.16 0  2.04 0.16 0  2.08 0.16 0  2.12 0.16 0  2.16 0.16 0  2.2 0.16 0  2.24 0.16 0  2.28 0.16 0  2.32 0.16 0  2.36 0.16 0  2.4 0.16 0  0.0399111 0.2 0  0 0.2 0  0.0795281 0.2 0  0.117811 0.2 0  0.15 0.2 0  0.282167 0.2 0  0.25 0.2 0  0.320429 0.2 0  0.36003 0.200001 0  0.399944 0.200001 0  0.439934 0.200001 0  0.479942 0.200001 0  0.519953 0.200001 0  0.559963 0.200001 0  0.59997 0.200001 0  0.639976 0.200001 0  0.6799809999999999 0.200001 0  0.719984 0.200001 0  0.759987 0.200001 0  0.799989 0.2 0  0.839991 0.2 0  0.879993 0.2 0  0.919996 0.199999 0  0.959998 0.199999 0  1 0.199999 0  1.04 0.199999 0  1.08 0.199999 0  1.12 0.2 0  1.16 0.2 0  1.2 0.2 0  1.24 0.2 0  1.28 0.2 0  1.32 0.2 0  1.36 0.2 0  1.4 0.2 0  1.44 0.2 0  1.48 0.2 0  1.52 0.2 0  1.56 0.2 0  1.6 0.2 0  1.64 0.2 0  1.68 0.2 0  1.72 0.2 0  1.76 0.2 0  1.8 0.2 0  1.84 0.2 0  1.88 0.2 0  1.92 0.2 0  1.96 0.2 0  2 0.2 0  2.04 0.2 0  2.08 0.2 0  2.12 0.2 0  2.16 0.2 0  2.2 0.2 0  2.24 0.2 0  2.28 0.2 0  2.32 0.2 0  2.36 0.2 0  2.4 0.2 0  0.0400582 0.239823 0  0 0.24 0  0.0801953 0.239475 0  0.120857 0.238513 0  0.164645 0.235355 0  0.279119 0.238502 0  0.235355 0.235355 0  0.319759 0.239451 0  0.359873 0.239774 0  0.399905 0.239898 0  0.439925 0.239951 0  0.479941 0.239976 0  0.519954 0.239988 0  0.559964 0.239994 0  0.5999719999999999 0.239997 0  0.639977 0.239999 0  0.679982 0.24 0  0.719985 0.24 0  0.759987 0.24 0  0.79999 0.24 0  0.839992 0.24 0  0.8799940000000001 0.24 0  0.919996 0.239999 0  0.959998 0.239999 0  1 0.239999 0  1.04 0.239999 0  1.08 0.239999 0  1.12 0.24 0  1.16 0.24 0  1.2 0.24 0  1.24 0.24 0  1.28 0.24 0  1.32 0.24 0  1.36 0.24 0  1.4 0.24 0  1.44 0.24 0  1.48 0.24 0  1.52 0.24 0  1.56 0.24 0  1.6 0.24 0  1.64 0.24 0  1.68 0.24 0  1.72 0.24 0  1.76 0.24 0  1.8 0.24 0  1.84 0.24 0  1.88 0.24 0  1.92 0.24 0  1.96 0.24 0  2 0.24 0  2.04 0.24 0  2.08 0.24 0  2.12 0.24 0  2.16 0.24 0  2.2 0.24 0  2.24 0.24 0  2.28 0.24 0  2.32 0.24 0  2.36 0.24 0  2.4 0.24 0  0.0401261 0.279816 0  0 0.28 0  0.0803376 0.279565 0  0.120778 0.27922 0  0.161485 0.279141 0  0.2 0.25 0  0.199996 0.282186 0  0.238503 0.279135 0  0.279195 0.279202 0  0.319616 0.279528 0  0.359799 0.279745 0  0.39988 0.279865 0  0.43992 0.279929 0  0.479944 0.279962 0  0.519958 0.27998 0  0.559968 0.27999 0  0.599976 0.279995 0  0.639981 0.279998 0  0.679984 0.279999 0  0.719987 0.28 0  0.759989 0.28 0  0.799991 0.28 0  0.839993 0.28 0  0.879995 0.28 0  0.919997 0.279999 0  0.959998 0.279999 0  1 0.279999 0  1.04 0.279999 0  1.08 0.28 0  1.12 0.28 0  1.16 0.28 0  1.2 0.28 0  1.24 0.28 0  1.28 0.28 0  1.32 0.28 0  1.36 0.28 0  1.4 0.28 0  1.44 0.28 0  1.48 0.28 0  1.52 0.28 0  1.56 0.28 0  1.6 0.28 0  1.64 0.28 0  1.68 0.28 0  1.72 0.28 0  1.76 0.28 0  1.8 0.28 0  1.84 0.28 0  1.88 0.28 0  1.92 0.28 0  1.96 0.28 0  2 0.28 0  2.04 0.28 0  2.08 0.28 0  2.12 0.28 0  2.16 0.28 0  2.2 0.28 0  2.24 0.28 0  2.28 0.28 0  2.32 0.28 0  2.36 0.28 0  2.4 0.28 0  0.0401086 0.319877 0  0 0.32 0  0.08025060000000001 0.319748 0  0.120433 0.319661 0  0.160522 0.319802 0  0.199995 0.320467 0  0.239464 0.319795 0  0.279543 0.319643 0  0.31971 0.319714 0  0.359828 0.319813 0  0.399895 0.319889 0  0.439933 0.319937 0  0.479955 0.319965 0  0.519968 0.319981 0  0.559976 0.31999 0  0.599982 0.319995 0  0.6399860000000001 0.319998 0  0.679989 0.319999 0  0.719991 0.32 0  0.759992 0.32 0  0.799994 0.32 0  0.839995 0.32 0  0.879996 0.32 0  0.919998 0.32 0  0.959999 0.32 0  1 0.32 0  1.04 0.32 0  1.08 0.32 0  1.12 0.32 0  1.16 0.32 0  1.2 0.32 0  1.24 0.32 0  1.28 0.32 0  1.32 0.32 0  1.36 0.32 0  1.4 0.32 0  1.44 0.32 0  1.48 0.32 0  1.52 0.32 0  1.56 0.32 0  1.6 0.32 0  1.64 0.32 0  1.68 0.32 0  1.72 0.32 0  1.76 0.32 0  1.8 0.32 0  1.84 0.32 0  1.88 0.32 0  1.92 0.32 0  1.96 0.32 0  2 0.32 0  2.04 0.32 0  2.08 0.32 0  2.12 0.32 0  2.16 0.32 0  2.2 0.32 0  2.24 0.32 0  2.28 0.32 0  2.32 0.32 0  2.36 0.32 0  2.4 0.32 0  0.0400579 0.359942 0  0 0.36 0  0.0801229 0.359891 0  0.120183 0.359873 0  0.160175 0.35994 0  0.199997 0.360086 0  0.239816 0.359936 0  0.279804 0.359862 0  0.319855 0.359871 0  0.359906 0.359906 0  0.399941 0.35994 0  0.439962 0.359964 0  0.479975 0.359979 0  0.5199820000000001 0.359989 0  0.559987 0.359994 0  0.59999 0.359997 0  0.639993 0.359998 0  0.679994 0.359999 0  0.7199950000000001 0.36 0  0.759996 0.36 0  0.799997 0.36 0  0.839997 0.36 0  0.8799979999999999 0.36 0  0
[...]
<PointData  Scalars="f_10391-0"> 
<DataArray  type="Float64"  Name="f_10391-0"  format="ascii">2.5545098925424885e-02  2.5959153683394905e-02  2.6750551280024626e-02  2.5898982922368505e-02  2.5934943850012205e-02  2.7563838483342241e-02  2.3751473972374197e-02  2.5181630074498956e-02  1.9699348555662993e-02  2.0293542780421656e-02  1.5327006554784563e-02  1.5498619744440785e-02  1.1400220070476684e-02  1.1388781201014185e-02  8.2033339803633133e-03  8.1263365801127873e-03  5.7490470028540141e-03  5.6641382983381484e-03  3.9370351686712976e-03  3.8662428906849626e-03  2.6379906112269122e-03  2.5856678682707928e-03  1.7297203053196855e-03  1.6934671212663639e-03  1.1093957394726439e-03  1.0852257697667486e-03  6.9548971039927986e-04  6.7979457011073841e-04  4.2581829818888559e-04  4.1583871661798048e-04  2.5439669200989291e-04  2.4816208396927409e-04  1.4817671643401620e-04  1.4434667727708384e-04  8.4074773690304797e-05  8.1765443299947085e-05  4.6431780072917919e-05  4.5065306729570748e-05  2.4939168342163888e-05  2.4146808387104620e-05  1.3017337605567194e-05  1.2567807081655315e-05  6.5976664138371502e-06  6.3486630059814988e-06  3.2444205058945460e-06  3.1098310862346702e-06  1.5466815397831423e-06  1.4758336396172402e-06  7.1417138487811412e-07  6.7792073851386149e-07  3.1911109813765070e-07  3.0109061792626109e-07  1.3784286444305862e-07  1.2915802545967542e-07  5.7498408627957028e-08  5.3444322317750906e-08  2.3132846728917227e-08  2.1302214457643371e-08  8.9641075566249793e-09  8.1655206657424816e-09  3.3404238692001031e-09  3.0043280671245064e-09  1.1948226007014227e-09  1.0585559906689875e-09  4.0929896028100219e-10  3.5615976048184398e-10  1.3391052073882622e-10  1.1401479216339600e-10  4.1696856215387185e-11  3.4559723917074113e-11  1.2299909421386215e-11  9.8528731189434470e-12  3.4154355335566621e-12  2.6159823600632532e-12  8.8448376228042993e-13  6.3656780088010929e-13  2.1047939959971818e-13  1.3787782740763842e-13  4.4825838146874334e-14  2.4891647382297600e-14  8.0701265158780928e-15  2.9931980157809452e-15  1.0285451928629644e-15  -1.4989076785898431e-16  -3.5520992892977921e-18  -2.4474064176872973e-16  -5.8130268245618024e-17  -9.8395473120488463e-17  -2.4274971983982317e-17  -2.8333584921418315e-17  -6.9586544549424865e-18  -6.4700698220285840e-18  -1.5676355070782897e-18  -1.1380861206951793e-18  -2.7270303330847072e-19  -1.1979097647254486e-19  -2.9375799623925348e-20  1.0663585183552398e-20  1.7716896746171097e-21  1.0011107395992459e-20  2.0075392146364936e-21  3.2518584019241990e-21  6.4781476434777883e-22  7.2814462549289530e-22  1.4202941458908603e-22  1.1407852034942474e-22  2.1741289128607280e-23  7.9178624116854470e-24  1.5045836218491109e-24  -2.1911178226797740e-24  -3.7572069474390769e-25  -1.0714784400203704e-24  -1.8109491721073634e-25  -2.6419580545937569e-25  -4.3272190160301930e-26  -4.2764594896003773e-26  -6.7480266651531958e-27  -3.3032149646149778e-27  -4.7248756245236990e-28  6.2779501181221691e-28  1.8081449553714049e-28  5.9668235634969334e-28  2.7399345875832735e-02  2.5711719856999771e-02  3.0828595300370895e-02  2.8815031962330873e-02  2.1721898153524617e-02  1.5780830064422876e-02  1.1212251716633058e-02  7.8213862108796588e-03  5.3838208888469710e-03  3.6531485680801625e-03  2.4373801573454234e-03  1.5953227418276591e-03  1.0223671105903185e-03  6.4053061609922301e-04  3.9182559784261986e-04  2.3376411012900956e-04  1.3588328620561867e-04  7.6886599408892647e-05  4.2310213951952617e-05  2.2624142394747719e-05  1.1744538380335460e-05  5.9137696259306972e-06  2.8856808592007670e-06  1.3632109569804814e-06  6.2279433448963637e-07  2.7486181743463419e-07  1.1703712384079943e-07  4.8011123532545491e-08  1.8943264447775998e-08  7.1749697512804293e-09  2.6027041817345247e-09  9.0160594958174285e-10  2.9716448515131042e-10  9.2734998959390831e-11  2.7214603531875709e-11  7.4350671211837834e-12  1.8603111327135230e-12  4.1362928036839365e-13  7.6308806780357015e-14  9.1762129353954618e-15  -6.3449888661466699e-16  -8.7487509612590333e-16  -3.5634596723288410e-16  -1.0503033570595586e-16  -2.4594577722750445e-17  -4.4260357431801481e-18  -4.6766143160816138e-19  5.0076965053160828e-20  4.4633706832246920e-20  1.4803850857873816e-20  3.4064954663797031e-21  5.4890479589709047e-22  3.8747665843316848e-23  -1.1498635981247063e-23  -5.7591928848237577e-24  -1.4672062796025863e-24  -2.4619991156860911e-25  -1.9959824158573160e-26  3.5068542157299954e-27  1.9287412353588622e-27  8.8603247963841494e-28  2.4791917343267470e-02  2.3309761810312447e-02  2.8575884342631745e-02  2.7787872783296131e-02  2.1522392788493015e-02  1.5474675131877655e-02  1.0494404737397807e-02  7.1130564029824664e-03  4.8483395896614925e-03  3.2855170972255561e-03  2.1960558172072304e-03  1.4411070017493605e-03  9.2586330636892835e-04  5.8126383352164563e-04  3.5608736466992994e-04  2.1262308676443952e-04  1.2362128870241245e-04  6.9919311384278489e-05  3.8436029566673650e-05  2.0517099353060122e-05  1.0625680438708502e-05  5.3337762728726336e-06  2.5925638387018365e-06  1.2189663365560053e-06  5.5374399888152490e-07  2.4273645382193574e-07  1.0253347264880286e-07  4.1664694742491199e-08  1.6255497079797169e-08  6.0750818531537901e-09  2.1685740678613277e-09  7.3667231315842999e-10  2.3699677426542734e-10  7.1720688752954008e-11  2.0213156454988311e-11  5.2202153543022874e-12  1.1992734842818821e-12  2.2918874651823049e-13  2.8882845395509530e-14  -1.7826930304389439e-15  -2.7922814295611348e-15  -1.1838252202571495e-15  -3.6129343997878361e-16  -8.7496841761886042e-17  -1.6286114476305988e-17  -1.7853117944879857e-18  1.9283092838909372e-19  1.7978331359963650e-19  6.1712692145352976e-20  1.4686082087568871e-20  2.4481663997228138e-21  1.7948925018189233e-22  -5.4459252470476063e-23  -2.8298380893068378e-23  -7.4666505246969948e-24  -1.2989249181175863e-24  -1.0996722542395556e-25  1.9402882783995896e-26  1.0895619819178444e-26  2.6985022042298581e-27  7.9731825031731419e-28  1.9693316417571629e-02  1.9058172593482969e-02  2.1242193791466534e-02  2.1243618015352704e-02  1.9000893749403482e-02  1.4695858233311040e-02  8.5630044159375005e-03  5.8077433827047461e-03  4.0348138495181962e-03  2.7801508776256864e-03  1.8813273791772958e-03  1.2456838023893093e-03  8.0554192215027368e-04  5.0812546398816549e-04  3.1233161988909980e-04  1.8690819330842857e-04  1.0880270834344020e-04  6.1558318701237299e-05  3.3821892039855970e-05  1.8029681703824978e-05  9.3169245177396304e-06  4.6625426744156749e-06  2.2573015284043240e-06  1.0560438777903166e-06  4.7681392547540512e-07  2.0747867399318177e-07  8.6869104539879321e-08  3.4927901142709036e-08  1.3455228052597034e-08  4.9521127255657206e-09  1.7349937283173431e-09  5.7588766299436278e-10  1.7990111423927595e-10  5.2377476904587626e-11  1.3991360156876297e-11  3.3327281310964813e-12  6.6441478915995290e-13  8.9767030658077344e-14  -3.6430721443726606e-15  -8.1786002082083131e-15  -3.6671022574793918e-15  -1.1667795214031695e-15  -2.9378655760915199e-16  -5.6974016722797789e-17  -6.6295013765174979e-18  6.3493439094187246e-19  6.6564257565202929e-19  2.3878860146280176e-19  5.9045150728957480e-20  1.0231032148127464e-20  7.9351620032770726e-22  -2.3565280164680999e-22  -1.2855529492848460e-22  -3.5208849470542380e-23  -6.3513718025909581e-24  -5.6018270756814213e-25  1.0003493942289848e-25  5.8622128773526545e-26  1.4891171381933320e-26  2.2848903160625024e-27  2.2493662081268879e-28  1.4783314858758674e-02  1.4583716914424638e-02  1.5150661504791633e-02  1.4977147156486188e-02  1.4307619881824475e-02  4.0516705252861603e-03  4.9540781905150185e-03  3.0854527060553234e-03  2.2208085861876717e-03  1.5392280445766331e-03  1.0345416102791065e-03  6.7584557194189652e-04  4.2938631586777619e-04  2.6527697523238763e-04  1.5930452616560328e-04  9.2933880561056633e-05  5.2631535688024082e-05  2.8915174032442493e-05  1.5397261079363073e-05  7.9399908509771066e-06  3.9610743927489587e-06  1.9096269243889141e-06  8.8855825095955229e-07  3.9850322786007745e-07  1.7198165083437196e-07  7.1291075138242468e-08  2.8319525846041140e-08  1.0750177371557860e-08  3.8858510445983879e-09  1.3312523965874867e-09  4.2946659321098514e-10  1.2923239873075457e-10  3.5728568490986394e-11  8.8317010562177937e-12  1.8393373796471914e-12  2.6701111864046570e-13  -4.7458772018030704e-15  -2.2512849730248993e-14  -1.0751824547568528e-14  -3.5761202184184145e-15  -9.3814840172588563e-16  -1.9010078966340777e-16  -2.3665676884021959e-17  1.8587344266306847e-18  2.3133058884751408e-18  8.7181554148102253e-19  2.2455625862053232e-19  4.0555426343903058e-20  3.3626463275006121e-21  -9.5001583467915806e-22  -5.4895094142533045e-22  -1.5633272588592032e-22  -2.9261909312479308e-23  -2.6904689789317209e-24  4.8483206785917675e-25  2.9663770424957871e-25  7.8094320980187355e-26  1.2501873302934324e-26  5.5066029086795779e-28  -6.7088253893739700e-28  1.0720370212281135e-02  1.0716542217096852e-02  1.0603171324643579e-02  1.0000480573617536e-02  8.2146454647227737e-03  3.0884558650418467e-03  3.6718785786987390e-03  2.3768290476533656e-03  1.7421027224378844e-03  1.2281234167065278e-03  8.3682357172172963e-04  5.5248907329160702e-04  3.5383458662716175e-04  2.1990069804632965e-04  1.3260912327053040e-04  7.7571864187901842e-05  4.3992819167583160e-05  2.4173445628571811e-05  1.2859696023856467e-05  6.6169366142342116e-06  3.2899186770570662e-06  1.5787077857828026e-06  7.3017063703332144e-07  3.2498811872673685e-07  1.3894062512314926e-07  5.6932652073806526e-08  2.2297276479913727e-08  8.3172046663050889e-09  2.9413711465924048e-09  9.7997726388942139e-10  3.0475899491409994e-10  8.7176693355328008e-11  2.2345495831960343e-11  4.8518331293355894e-12  7.5025968406001230e-13  2.8264712367656404e-16  -5.9760589095376632e-14  -3.0362313359574990e-14  -1.0550270424294321e-14  -2.8830816208512006e-15  -6.1042596968100208e-16  -8.1203885163157386e-17  4.9977904957460080e-18  7.7178735190715823e-18  3.0628139394538444e-18  8.2314454412659220e-19  1.5537222218570429e-19  1.3920364082887265e-20  -3.6207324307206415e-21  -2.2447385613397851e-21  -6.6721300911862672e-22  -1.3009105214106777e-22  -1.2626876546304755e-23  2.2038906690538610e-24  1.4328728556149475e-24  3.9256846864546082e-25  6.5392665119636699e-26  3.4775746367312581e-27  -1.9588693458125450e-27  -1.5020726538429625e-27  7.7051910649965664e-03  7.7784748914177014e-03  7.4321951597368799e-03  6.8084877004222517e-03  5.6312632673820558e-03  4.8492043079157547e-03  4.0249025474417789e-03  3.1134211152583587e-03  2.4334304478175854e-03  1.8569476049522674e-03  1.3702289783845427e-03  9.7604357551747862e-04  6.7194047957501034e-04  4.4762608375142627e-04  2.8879091993756078e-04  1.8050472587727626e-04  1.0930620099629811e-04  6.4115539603499557e-05  3.6413155031231984e-05  2.0010452822807076e-05  1.0632553675294603e-05  5.4575389534957828e-06  2.7031131773033295e-06  1.2902843083588684e-06  5.9266715668371666e-07  2.6149494148719559e-07  1.1058103886550635e-07  4.4701469632722512e-08  1.7213670691329265e-08  6.2860409116992826e-09  2.1633923354097407e-09  6.9535758864743757e-10  2.0576879800739944e-10  5.4655905334830404e-11  1.2347091462886489e-11  2.0168834536312903e-12  2.7895596606746124e-14  -1.5623616277758870e-13  -8.4132641212421752e-14  -3.0520440975782136e-14  -8.6925021460412336e-15  -1.9260542330486116e-15  -2.7470595823506140e-16  1.1667782980146176e-17  2.5081322956445910e-17  1.0552581719688446e-17  2.9747521870879318e-18  5.9172609351945475e-19  5.9036618756445909e-20  -1.2829056454720426e-20  -8.8967555092510682e-21  -2.7937544411442849e-21  -5.7473359797735901e-22  -6.1198207464207913e-23  9.0012769174296219e-24  6.6520732071105102e-24  1.9297177163637683e-24  3.4057929228700846e-25  2.1237201167237720e-26  -9.4491473897030393e-27  -4.2433827063541389e-27  -1.8356366299983304e-27  5.7037114821542933e-03  5.7952380652644695e-03  5.4246200742914322e-03  4.9212093866321622e-03  4.1666419318107410e-03  3.2710585046270579e-03  2.5582076766126277e-03  1.9787791989733217e-03  1.5020532062366353e-03  1.1094087641817308e-03  7.9408942193755477e-04  5.5012377645970601e-04  3.6879246358491536e-04  2.3926050039966578e-04  1.5022608215918345e-04  9.1276005486629216e-05  5.3652851976143525e-05  3.0497263687289210e-05  1.6753028188863204e-05  8.8869539927893311e-06  4.5477945597801565e-06  2.2425332006047234e-06  1.0640052368000091e-06  4.8490733256577706e-07  2.1182896640549004e-07  8.8466063742266482e-08  3.5204205608017373e-08  1.3289618959173673e-08  4.7304501025482246e-09  1.5737580786436425e-09  4.8262295093226734e-10  1.3315261356517185e-10  3.1406422824204107e-11  5.4576645464523118e-12  1.7031880696523713e-13  -3.9927403604892470e-13  -2.3112352093416045e-13  -8.8137726019417410e-14  -2.6341386273286246e-14  -6.1695536393035585e-15  -9.6598747240610860e-16  1.0162993955222451e-17  7.8385079976082071e-17  3.5930490820147502e-17  1.0794137993072097e-17  2.3087008988224330e-18  2.7174434014341922e-19  -3.8072471921836368e-20  -3.3888576129756917e-20  -1.1583471796110502e-20  -2.5815972312933316e-21  -3.2094408219709965e-22  2.8117917867868998e-23  2.9248775484197343e-23  9.3362391380777480e-24  1.8101282108546717e-24  1.4952607983869973e-25  -4.1783542958444721e-26  -2.1940370837651901e-26  -5.3316995532931958e-27  -1.4103917075386165e-27  4.5842850438840271e-03  4.6789449398232730e-03  4.3315549685622326e-03  3.9236473126146882e-03  3.3772393153135029e-03  2.7608136657084796e-03  2.1931587686862017e-03  1.7023802462098033e-03  1.2913681889196991e-03  9.5394773796617007e-04  6.8411563147096005e-04  4.7538309001286360e-04  3.1976612859282630e-04  2.0810447451032933e-04  1.3099239466861652e-04  7.9725564811085990e-05  4.6898804049544580e-05  2.6651801463982979e-05  1.4621329253867539e-05  7.7369768352175203e-06  3.9446919819199550e-06  1.9353126038597901e-06  9.1215505682149326e-07  4.1220086261066592e-07  1.7815277267465135e-07  7.3409136856011956e-08  2.8718431646313010e-08  1.0605743276074504e-08  3.6670229313056137e-09  1.1719992583595895e-09  3.3870399835961571e-10  8.4646718682748046e-11  1.6202780260897766e-11  1.1101929309451343e-12  -9.2286194899631940e-13  -6.2010009565156787e-13  -2.5521446113768622e-13  -8.1582710431624218e-14  -2.0656620575628944e-14  -3.7073067124360266e-15  -1.5969283720243316e-16  2.1998250259278372e-16  1.1876996758830712e-16  3.9311919355943614e-17  9.3340615730045422e-18  1.3702165868827753e-18  -5.4282210666559215e-20  -1.1854009455410602e-19  -4.6867309371661785e-20  -1.1764291011142009e-20  -1.8027869323999168e-21  1.4152886964089438e-23  1.1562256581046219e-22  4.3635354876884374e-23  9.7364271672461591e-24  1.1269979974434271e-24  -1.2913131567572410e-25  -1.0635607047293526e-25  -3.0147740051778837e-26  -4.7222522196092705e-27  -2.5101698842123937e-28  4.2322102825562823e-03  4.3579484631865173e-03  3.9855424746806974e-03  3.6096963054695758e-03  3.1241561681565467e-03  2.5825484423105350e-03  2.0637215370086295e-03  1.6055436469105981e-03  1.2182863187306268e-03  8.9994711089691286e-04  6.4554183184495860e-04  4.4877820787130713e-04  3.0200429187545618e-04  1.9658781077780039e-04  1.2372421693902102e-04  7.5253318735673535e-05  4.4214554010253553e-05  2.5079422050043760e-05  1.3723160735307043e-05  7.2370825164898546e-06  3.6739208322968870e-06  1.7927388180334089e-06  8.3933273848246247e-07  3.7618011283175274e-07  1.6093391118445098e-07  6.5471757485762977e-08  2.5200331418318104e-08  9.1113068744227068e-09  3.0610027777173476e-09  9.3855608535551307e-10  2.5384816291399262e-10  5.5814159645349424e-11  7.1788021663183102e-12  -1.4249679449174969e-12  -1.5280799508859499e-12  -7.2414271733754148e-13  -2.5632888787329852e-13  -7.2305361522591729e-14  -1.5409552061935179e-14  -1.7002255640728924e-15  4.4295517677828781e-16  3.6046236066643932e-16  1.3966552345417768e-16  3.8225104496578128e-17  7.1383965403612561e-18  4.0737103974879747e-19  -3.3749998817908500e-19  -1.7688452482257377e-19  -5.2586486760286489e-20  -1.0175798807562307e-20  -7.3025625446128518e-22  3.5871268857962909e-22  1.8763869602910988e-22  5.0819026563754855e-23  8.1251698032677092e-24  7.2578698224649787e-26  -4.3360460251362072e-25  -1.5896112091135567e-25  -3.2278327164365548e-26  -2.5078068851550156e-27  1.4313675222827561e-27  </DataArray> 
</PointData> 
</Piece>
</UnstructuredGrid>
</VTKFile>