<?xml version="1.0"?>
<VTKFile type="UnstructuredGrid"  version="0.1"  >
<UnstructuredGrid>
<Piece  NumberOfPoints="670" NumberOfCells="1192">
<Points>
<DataArray  type="Float64"  NumberOfComponents="3"  format="ascii">0 0 0  0.04 -1.31357e-10 0  0.0400579 0.0400582 0  0 0.04 0  0.08 -2.62713e-10 0  0.080123 0.0401093 0  0.12 -3.9407e-10 0  0.120183 0.040127 0  0.16 -5.25427e-10 0  0.160176 0.0400597 0  0.2 -6.56784e-10 0  0.199997 0.0399142 0  0.24 -7.8814e-10 0  0.239816 0.0400642 0  0.28 -9.19497e-10 0  0.279804 0.0401377 0  0.32 -1.05085e-09 0  0.319855 0.0401297 0  0.36 -1.18221e-09 0  0.359906 0.0400945 0  0.4 -1.31357e-09 0  0.399941 0.0400609 0  0.44 -1.44492e-09 0  0.439962 0.0400367 0  0.48 -1.57628e-09 0  0.479975 0.0400214 0  0.52 -1.70764e-09 0  0.519983 0.0400122 0  0.5600000000000001 -1.83899e-09 0  0.559987 0.0400069 0  0.6 -1.97035e-09 0  0.59999 0.040004 0  0.64 -2.10171e-09 0  0.639993 0.0400023 0  0.68 -2.23306e-09 0  0.679994 0.0400013 0  0.72 -2.36442e-09 0  0.7199950000000001 0.0400008 0  0.76 -2.49578e-09 0  0.759996 0.0400005 0  0.8 -2.62713e-09 0  0.799997 0.0400002 0  0.84 -2.75849e-09 0  0.839997 0.0400001 0  0.88 -2.88985e-09 0  0.8799979999999999 0.04 0  0.92 -3.0212e-09 0  0.919999 0.0399999 0  0.96 -3.15256e-09 0  0.959999 0.0399998 0  1 -3.28392e-09 0  1 0.0399998 0  1.04 -3.41527e-09 0  1.04 0.0399998 0  1.08 -3.54663e-09 0  1.08 0.0399998 0  1.12 -3.67799e-09 0  1.12 0.0399998 0  1.16 -3.80934e-09 0  1.16 0.0399999 0  1.2 -3.9407e-09 0  1.2 0.04 0  1.24 -4.07206e-09 0  1.24 0.04 0  1.28 -4.20341e-09 0  1.28 0.0400001 0  1.32 -4.33477e-09 0  1.32 0.0400001 0  1.36 -4.46613e-09 0  1.36 0.04 0  1.4 -4.59748e-09 0  1.4 0.04 0  1.44 -4.72884e-09 0  1.44 0.04 0  1.48 -4.8602e-09 0  1.48 0.04 0  1.52 -4.99156e-09 0  1.52 0.04 0  1.56 -5.12291e-09 0  1.56 0.04 0  1.6 -5.25427e-09 0  1.6 0.0400001 0  1.64 -5.38563e-09 0  1.64 0.0400001 0  1.68 -5.51698e-09 0  1.68 0.04 0  1.72 -5.64834e-09 0  1.72 0.04 0  1.76 -5.7797e-09 0  1.76 0.04 0  1.8 -5.91105e-09 0  1.8 0.04 0  1.84 -6.04241e-09 0  1.84 0.04 0  1.88 -6.17377e-09 0  1.88 0.0400001 0  1.92 -6.30512e-09 0  1.92 0.0400001 0  1.96 -6.43648e-09 0  1.96 0.0400001 0  2 -6.56784e-09 0  2 0.0400001 0  2.04 -6.69919e-09 0  2.04 0.0400001 0  2.08 -6.83055e-09 0  2.08 0.04 0  2.12 -6.96191e-09 0  2.12 0.04 0  2.16 -7.09326e-09 0  2.16 0.0400001 0  2.2 -7.22462e-09 0  2.2 0.04 0  2.24 -7.35598e-09 0  2.24 0.04 0  2.28 -7.48733e-09 0  2.28 0.0399999 0  2.32 -7.618690000000001e-09 0  2.32 0.04 0  2.36 -7.750049999999999e-09 0  2.36 0.04 0  2.4 -7.8814e-09 0  2.4 0.04 0  0.0401088 0.0801235 0  0 0.08 0  0.0802509 0.0802518 0  0.120434 0.0803392 0  0.160522 0.0801977 0  0.199995 0.0795328 0  0.239464 0.0802049 0  0.279544 0.08035689999999999 0  0.319711 0.0802867 0  0.359828 0.08018740000000001 0  0.399896 0.0801123 0  0.439933 0.0800646 0  0.479955 0.0800365 0  0.519968 0.08002049999999999 0  0.559976 0.0800116 0  0.599982 0.0800066 0  0.6399860000000001 0.0800039 0  0.679989 0.0800023 0  0.719991 0.0800014 0  0.759992 0.0800008 0  0.799994 0.0800004 0  0.839995 0.08000019999999999 0  0.879996 0.0799999 0  0.919997 0.07999970000000001 0  0.959999 0.0799996 0  1 0.0799995 0  1.04 0.0799995 0  1.08 0.0799996 0  1.12 0.07999970000000001 0  1.16 0.0799998 0  1.2 0.08 0  1.24 0.0800001 0  1.28 0.0800001 0  1.32 0.0800001 0  1.36 0.08 0  1.4 0.0799999 0  1.44 0.0799999 0  1.48 0.0799999 0  1.52 0.0799999 0  1.56 0.08 0  1.6 0.0800001 0  1.64 0.0800001 0  1.68 0.08 0  1.72 0.0799999 0  1.76 0.0799999 0  1.8 0.0799999 0  1.84 0.0799999 0  1.88 0.08 0  1.92 0.0800001 0  1.96 0.0800001 0  2 0.0800001 0  2.04 0.08 0  2.08 0.0799999 0  2.12 0.0799999 0  2.16 0.08 0  2.2 0.08 0  2.24 0.0799999 0  2.28 0.0799998 0  2.32 0.0799999 0  2.36 0.0799999 0  2.4 0.08 0  0.0401262 0.120184 0  0 0.12 0  0.0803378 0.120435 0  0.120779 0.12078 0  0.161485 0.120859 0  0.199996 0.117814 0  0.238503 0.120866 0  0.279195 0.120798 0  0.319616 0.120473 0  0.359799 0.120256 0  0.39988 0.120136 0  0.439921 0.120073 0  0.479944 0.120039 0  0.519958 0.120022 0  0.5599690000000001 0.120012 0  0.599976 0.120007 0  0.639981 0.120004 0  0.679985 0.120002 0  0.719987 0.120002 0  0.7599900000000001 0.120001 0  0.799991 0.12 0  0.839993 0.12 0  0.879995 0.12 0  0.919996 0.12 0  0.959998 0.119999 0  1 0.119999 0  1.04 0.119999 0  1.08 0.119999 0  1.12 0.12 0  1.16 0.12 0  1.2 0.12 0  1.24 0.12 0  1.28 0.12 0  1.32 0.12 0  1.36 0.12 0  1.4 0.12 0  1.44 0.12 0  1.48 0.12 0  1.52 0.12 0  1.56 0.12 0  1.6 0.12 0  1.64 0.12 0  1.68 0.12 0  1.72 0.12 0  1.76 0.12 0  1.8 0.12 0  1.84 0.12 0  1.88 0.12 0  1.92 0.12 0  1.96 0.12 0  2 0.12 0  2.04 0.12 0  2.08 0.12 0  2.12 0.12 0  2.16 0.12 0  2.2 0.12 0  2.24 0.12 0  2.28 0.12 0  2.32 0.12 0  2.36 0.12 0  2.4 0.12 0  0.0400582 0.160177 0  0 0.16 0  0.0801954 0.160525 0  0.120857 0.161488 0  0.164645 0.164645 0  0.2 0.15 0  0.235355 0.164645 0  0.279119 0.161498 0  0.319759 0.16055 0  0.359874 0.160228 0  0.399906 0.160104 0  0.439925 0.160051 0  0.479941 0.160027 0  0.519954 0.160014 0  0.559964 0.160008 0  0.5999719999999999 0.160005 0  0.639978 0.160003 0  0.679982 0.160002 0  0.719985 0.160001 0  0.759988 0.160001 0  0.79999 0.16 0  0.839992 0.16 0  0.8799940000000001 0.16 0  0.919996 0.159999 0  0.959998 0.159999 0  1 0.159999 0  1.04 0.159999 0  1.08 0.159999 0  1.12 0.16 0  1.16 0.16 0  1.2 0.16 0  1.24 0.16 0  1.28 0.16 0  1.32 0.16 0  1.36 0.16 0  1.4 0.16 0  1.44 0.16 0  1.48 0.16 0  1.52 0.16 0  1.56 0.16 0  1.6 0.16 0  1.64 0.16 0  1.68 0.16 0  1.72 0.16 0  1.76 0.16 0  1.8 0.16 0  1.84 0.16 0  1.88 0.16 0  1.92 0.16 0  1.96 0.16 0  2 0.16 0  2.04 0.16 0  2.08 0.16 0  2.12 0.16 0  2.16 0.16 0  2.2 0.16 0  2.24 0.16 0  2.28 0.16 0  2.32 0.16 0  2.36 0.16 0  2.4 0.16 0  0.0399111 0.2 0  0 0.2 0  0.0795281 0.2 0  0.117811 0.2 0  0.15 0.2 0  0.282167 0.2 0  0.25 0.2 0  0.320429 0.2 0  0.36003 0.200001 0  0.399944 0.200001 0  0.439934 0.200001 0  0.479942 0.200001 0  0.519953 0.200001 0  0.559963 0.200001 0  0.59997 0.200001 0  0.639976 0.200001 0  0.6799809999999999 0.200001 0  0.719984 0.200001 0  0.759987 0.200001 0  0.799989 0.2 0  0.839991 0.2 0  0.879993 0.2 0  0.919996 0.199999 0  0.959998 0.199999 0  1 0.199999 0  1.04 0.199999 0  1.08 0.199999 0  1.12 0.2 0  1.16 0.2 0  1.2 0.2 0  1.24 0.2 0  1.28 0.2 0  1.32 0.2 0  1.36 0.2 0  1.4 0.2 0  1.44 0.2 0  1.48 0.2 0  1.52 0.2 0  1.56 0.2 0  1.6 0.2 0  1.64 0.2 0  1.68 0.2 0  1.72 0.2 0  1.76 0.2 0  1.8 0.2 0  1.84 0.2 0  1.88 0.2 0  1.92 0.2 0  1.96 0.2 0  2 0.2 0  2.04 0.2 0  2.08 0.2 0  2.12 0.2 0  2.16 0.2 0  2.2 0.2 0  2.24 0.2 0  2.28 0.2 0  2.32 0.2 0  2.36 0.2 0  2.4 0.2 0  0.0400582 0.239823 0  0 0.24 0  0.0801953 0.239475 0  0.120857 0.238513 0  0.164645 0.235355 0  0.279119 0.238502 0  0.235355 0.235355 0  0.319759 0.239451 0  0.359873 0.239774 0  0.399905 0.239898 0  0.439925 0.239951 0  0.479941 0.239976 0  0.519954 0.239988 0  0.559964 0.239994 0  0.5999719999999999 0.239997 0  0.639977 0.239999 0  0.679982 0.24 0  0.719985 0.24 0  0.759987 0.24 0  0.79999 0.24 0  0.839992 0.24 0  0.8799940000000001 0.24 0  0.919996 0.239999 0  0.959998 0.239999 0  1 0.239999 0  1.04 0.239999 0  1.08 0.239999 0  1.12 0.24 0  1.16 0.24 0  1.2 0.24 0  1.24 0.24 0  1.28 0.24 0  1.32 0.24 0  1.36 0.24 0  1.4 0.24 0  1.44 0.24 0  1.48 0.24 0  1.52 0.24 0  1.56 0.24 0  1.6 0.24 0  1.64 0.24 0  1.68 0.24 0  1.72 0.24 0  1.76 0.24 0  1.8 0.24 0  1.84 0.24 0  1.88 0.24 0  1.92 0.24 0  1.96 0.24 0  2 0.24 0  2.04 0.24 0  2.08 0.24 0  2.12 0.24 0  2.16 0.24 0  2.2 0.24 0  2.24 0.24 0  2.28 0.24 0  2.32 0.24 0  2.36 0.24 0  2.4 0.24 0  0.0401261 0.279816 0  0 0.28 0  0.0803376 0.279565 0  0.120778 0.27922 0  0.161485 0.279141 0  0.2 0.25 0  0.199996 0.282186 0  0.238503 0.279135 0  0.279195 0.279202 0  0.319616 0.279528 0  0.359799 0.279745 0  0.39988 0.279865 0  0.43992 0.279929 0  0.479944 0.279962 0  0.519958 0.27998 0  0.559968 0.27999 0  0.599976 0.279995 0  0.639981 0.279998 0  0.679984 0.279999 0  0.719987 0.28 0  0.759989 0.28 0  0.799991 0.28 0  0.839993 0.28 0  0.879995 0.28 0  0.919997 0.279999 0  0.959998 0.279999 0  1 0.279999 0  1.04 0.279999 0  1.08 0.28 0  1.12 0.28 0  1.16 0.28 0  1.2 0.28 0  1.24 0.28 0  1.28 0.28 0  1.32 0.28 0  1.36 0.28 0  1.4 0.28 0  1.44 0.28 0  1.48 0.28 0  1.52 0.28 0  1.56 0.28 0  1.6 0.28 0  1.64 0.28 0  1.68 0.28 0  1.72 0.28 0  1.76 0.28 0  1.8 0.28 0  1.84 0.28 0  1.88 0.28 0  1.92 0.28 0  1.96 0.28 0  2 0.28 0  2.04 0.28 0  2.08 0.28 0  2.12 0.28 0  2.16 0.28 0  2.2 0.28 0  2.24 0.28 0  2.28 0.28 0  2.32 0.28 0  2.36 0.28 0  2.4 0.28 0  0.0401086 0.319877 0  0 0.32 0  0.08025060000000001 0.319748 0  0.120433 0.319661 0  0.160522 0.319802 0  0.199995 0.320467 0  0.239464 0.319795 0  0.279543 0.319643 0  0.31971 0.319714 0  0.359828 0.319813 0  0.399895 0.319889 0  0.439933 0.319937 0  0.479955 0.319965 0  0.519968 0.319981 0  0.559976 0.31999 0  0.599982 0.319995 0  0.6399860000000001 0.319998 0  0.679989 0.319999 0  0.719991 0.32 0  0.759992 0.32 0  0.799994 0.32 0  0.839995 0.32 0  0.879996 0.32 0  0.919998 0.32 0  0.959999 0.32 0  1 0.32 0  1.04 0.32 0  1.08 0.32 0  1.12 0.32 0  1.16 0.32 0  1.2 0.32 0  1.24 0.32 0  1.28 0.32 0  1.32 0.32 0  1.36 0.32 0  1.4 0.32 0  1.44 0.32 0  1.48 0.32 0  1.52 0.32 0  1.56 0.32 0  1.6 0.32 0  1.64 0.32 0  1.68 0.32 0  1.72 0.32 0  1.76 0.32 0  1.8 0.32 0  1.84 0.32 0  1.88 0.32 0  1.92 0.32 0  1.96 0.32 0  2 0.32 0  2.04 0.32 0  2.08 0.32 0  2.12 0.32 0  2.16 0.32 0  2.2 0.32 0  2.24 0.32 0  2.28 0.32 0  2.32 0.32 0  2.36 0.32 0  2.4 0.32 0  0.0400579 0.359942 0  0 0.36 0  0.0801229 0.359891 0  0.120183 0.359873 0  0.160175 0.35994 0  0.199997 0.360086 0  0.239816 0.359936 0  0.279804 0.359862 0  0.319855 0.359871 0  0.359906 0.359906 0  0.399941 0.35994 0  0.439962 0.359964 0  0.479975 0.359979 0  0.5199820000000001 0.359989 0  0.559987 0.359994 0  0.59999 0.359997 0  0.639993 0.359998 0  0.679994 0.359999 0  0.7199950000000001 0.36 0  0.759996 0.36 0  0.799997 0.36 0  0.839997 0.36 0  0.8799979999999999 0.36 0  0
[...]
<PointData  Scalars="f_10391-0"> 
<DataArray  type="Float64"  Name="f_10391-0"  format="ascii">3.0742815526172501e-02  3.1096947938679745e-02  3.1808072200355565e-02  3.1000470868519325e-02  3.0946086491632024e-02  3.2501686608174742e-02  2.8567316401328754e-02  2.9932275248635905e-02  2.4246695298901839e-02  2.4785942773949299e-02  1.9527921433178354e-02  1.9653282102930967e-02  1.5185768813200357e-02  1.5131896803428423e-02  1.1530955035579805e-02  1.1415000989533904e-02  8.6042347278272435e-03  8.4851863956028669e-03  6.3290675655188634e-03  6.2297616699429235e-03  4.5947100849075568e-03  4.5194446186853894e-03  3.2923496317031125e-03  3.2381263043929414e-03  2.3274903224253713e-03  2.2895115079902034e-03  1.6222250005689808e-03  1.5960785826921757e-03  1.1139293877806804e-03  1.0961492606221990e-03  7.5304270369902743e-04  7.4105635507496187e-04  5.0085479185764370e-04  4.9283430806386472e-04  3.2754777534381495e-04  3.2222957153312919e-04  2.1051032414929629e-04  2.0701388815475341e-04  1.3289047038395963e-04  1.3061339229848254e-04  8.2364209262206887e-05  8.0896824884237108e-05  5.0098238223459683e-05  4.9164299495204006e-05  2.9893115646819449e-05  2.9305874409078484e-05  1.7491075981098304e-05  1.7126934920976223e-05  1.0032161097086339e-05  9.8098870067990659e-06  5.6382581470361190e-06  5.5046472583992734e-06  3.1038938013612294e-06  3.0249796437908092e-06  1.6730915289669153e-06  1.6273080362690359e-06  8.8271559913734192e-07  8.5664528456611884e-07  4.5566316087133376e-07  4.4110396198323126e-07  2.3004765234996162e-07  2.2207936933135979e-07  1.1354411248241381e-07  1.0927315613296889e-07  5.4764427994296693e-08  5.2523953799142766e-08  2.5800229467109983e-08  2.4650667785263354e-08  1.1866738022553563e-08  1.1290190926081816e-08  5.3259742389703308e-09  5.0434913925276403e-09  2.3312343330745547e-09  2.1961068037840775e-09  9.9455725652440040e-10  9.3148648352887708e-10  4.1327830336700572e-10  3.8457206143748633e-10  1.6714944803513447e-10  1.5441713677673254e-10  6.5744459613904376e-11  6.0244890687165543e-11  2.5124638566063295e-11  2.2813001126703472e-11  9.3188471378671668e-12  8.3740655723303824e-12  3.3504772423169228e-12  2.9753448389657120e-12  1.1659942293795025e-12  1.0214342400810806e-12  3.9207262829366974e-13  3.3806794555298324e-13  1.2710984168604052e-13  1.0757700507432866e-13  3.9623780252908939e-14  3.2794401949770779e-14  1.1835028230109837e-14  9.5311071453480155e-15  3.3710465995135770e-15  2.6228245436833768e-15  9.0958045346820468e-16  6.7633604830355046e-16  2.3016047063023965e-16  1.6063143044089576e-16  5.3721302464567216e-17  3.4003612998296681e-17  1.1212427955137027e-17  5.9318825337274284e-18  1.9462395907483912e-18  6.2580616066908959e-19  2.1466371057676337e-19  -8.7774213810674538e-20  -2.0641513466030192e-20  -8.1750055452914035e-20  -2.2643559220322442e-20  -3.2545325347816095e-20  -9.0579560228660596e-21  -9.8774835195791256e-21  -2.8328341373803589e-21  -2.5709275783172989e-21  -1.4500798265844078e-21  -1.0476159004386235e-21  3.2238872593835309e-02  3.0588498503689974e-02  3.5560434822958412e-02  3.3381048539418305e-02  2.6059774095066306e-02  1.9804008759020334e-02  1.4823502155806804e-02  1.0984882049718295e-02  8.0954038590484220e-03  5.9263237521750963e-03  4.2993622590106195e-03  3.0844326396611914e-03  2.1845676201916733e-03  1.5255222654792877e-03  1.0492744235103631e-03  7.1024654527561957e-04  4.7280003842839865e-04  3.0933517268366169e-04  1.9880755700296912e-04  1.2545252132064772e-04  7.7689761524748799e-05  4.7196960048573402e-05  2.8115735931308339e-05  1.6417194802572682e-05  9.3926374049335076e-06  5.2633134787467146e-06  2.8876527743965117e-06  1.5504785812251637e-06  8.1441346542687763e-07  4.1831022602912540e-07  2.1000760631810109e-07  1.0300384729261463e-07  4.9333324737261679e-08  2.3060453059125290e-08  1.0514535231793538e-08  4.6734737772608955e-09  2.0235958324180183e-09  8.5293740571188815e-10  3.4966836115242749e-10  1.3929303701917400e-10  5.3859740339383398e-11  2.0188888617722608e-11  7.3253077802043526e-12  2.5681772413205288e-12  8.6806447658489188e-13  2.8209789191331944e-13  8.7821169851945010e-14  2.6063233461840990e-14  7.3227324864402866e-15  1.9273368952469186e-15  4.6693947583116312e-16  1.0069579848446263e-16  1.7825710707456364e-17  1.8656711265749466e-18  -3.0516909795946443e-19  -2.7337356156883538e-19  -1.1018790311299959e-19  -3.4005491660775921e-20  -8.7089462510308985e-21  -1.8766487719229289e-21  -5.8474223525504651e-22  2.9307886774983416e-02  2.7857078834696614e-02  3.3000811978235935e-02  3.2078262039633695e-02  2.5639579075317290e-02  1.9322551948286804e-02  1.3890075310576407e-02  1.0066928535026866e-02  7.3806510774712814e-03  5.4138076941056060e-03  3.9443982749543874e-03  2.8429082342580109e-03  2.0222077307992608e-03  1.4174561353795642e-03  9.7801577468662458e-04  6.6373097101247861e-04  4.4275170373482016e-04  2.9013893563917622e-04  1.8668976044405151e-04  1.1789565192172016e-04  7.3041598286446041e-05  4.4376100476856568e-05  2.6428379988267202e-05  1.5423172631917009e-05  8.8162008177889488e-06  4.9343466640806140e-06  2.7030847952670869e-06  1.4487147589044984e-06  7.5930357544016133e-07  3.8901531877500538e-07  1.9473086826984164e-07  9.5193199687906841e-08  4.5420445605460896e-08  2.1140960830251164e-08  9.5930794010159986e-09  4.2408932125232072e-09  1.8251435143555883e-09  7.6403415854057931e-10  3.1080795617276481e-10  1.2273326144351267e-10  4.6986584666363922e-11  1.7413188836957625e-11  6.2358474240469010e-12  2.1531138753355047e-12  7.1480107630686303e-13  2.2734226447452181e-13  6.8933405185705280e-14  1.9788748668204934e-14  5.3219156644383187e-15  1.3175105689658464e-15  2.9033262173878186e-16  5.2516763449127087e-17  5.6129582213839868e-18  -9.4182446112081430e-19  -8.6102730362800990e-19  -3.5467414597508462e-19  -1.1188515374126327e-19  -2.9283844660160151e-20  -6.3136850061542952e-21  -1.0047656057607149e-21  -1.2480199806052022e-22  2.3814120538345501e-02  2.3204589418379763e-02  2.5289513928850732e-02  2.5193630498668344e-02  2.2883785704445405e-02  1.8393579875522193e-02  1.1620458718226232e-02  8.4608131205011258e-03  6.3289090453669972e-03  4.7230585570053217e-03  3.4865338661179126e-03  2.5381431050312295e-03  1.8195170433015686e-03  1.2832848290851957e-03  8.8985334124075605e-04  6.0631300929442312e-04  4.0574197153370948e-04  2.6655670685174693e-04  1.7184561029332841e-04  1.0867406677095575e-04  6.7390612080300415e-05  4.0963298093059298e-05  2.4398127290714437e-05  1.4233988290809784e-05  8.1309508091918237e-06  4.5460562988640177e-06  2.4868422588526533e-06  1.3304216003011357e-06  6.9577385462767057e-07  3.5553883309522865e-07  1.7743238078909115e-07  8.6432725471200470e-08  4.1074990909453392e-08  1.9031079955747709e-08  8.5909800253587644e-09  3.7756366311659844e-09  1.6141428250548138e-09  6.7063484898746278e-10  2.7048963322674561e-10  1.0577596323341557e-10  4.0044955839647183e-11  1.4650584751461795e-11  5.1683613708485994e-12  1.7532261564128891e-12  5.6983132439697722e-13  1.7658990556281416e-13  5.1820124976424586e-14  1.4249437603245506e-14  3.6083280606682050e-15  8.1397563056131157e-16  1.5104299896117495e-16  1.6761822031350261e-17  -2.6867645770418252e-18  -2.5890265753492404e-18  -1.0956375807346670e-18  -3.5410988540483580e-19  -9.4897419072856218e-20  -2.0973129827108495e-20  -3.4512602005278666e-21  -1.6592996857755817e-22  2.5010844789085368e-22  1.8472114838723675e-02  1.8295372118165818e-02  1.8771981018206815e-02  1.8510829097135018e-02  1.7757124749152704e-02  6.3206108327493399e-03  7.3787455504299802e-03  5.1119225192679850e-03  3.9623216168812522e-03  2.9896096920026308e-03  2.2083683130881509e-03  1.6001028940574999e-03  1.1378444905646716e-03  7.9414406489205819e-04  5.4392773859033281e-04  3.6551436636369280e-04  2.4092278804912367e-04  1.5572105663941746e-04  9.8668570210035586e-05  6.1270339078762614e-05  3.7275082509424631e-05  2.2209787304521707e-05  1.2956126558702929e-05  7.3971756897263234e-06  4.1318979327070547e-06  2.2571871548298631e-06  1.2053829552184820e-06  6.2896478983907941e-07  3.2052789092749779e-07  1.5944775500574955e-07  7.7382260554659317e-08  3.6615923925536180e-08  1.6881570364498272e-08  7.5778621261029093e-09  3.3090961272529320e-09  1.4043996447041779e-09  5.7865606436007311e-10  2.3118116423209868e-10  8.9421458116122162e-11  3.3428249596764482e-11  1.2050836970195424e-11  4.1778752971553146e-12  1.3879518412634587e-12  4.3972105269641903e-13  1.3194469421139187e-13  3.7112480968542828e-14  9.6184070399420714e-15  2.2231950514803705e-15  4.2401184355414203e-16  4.9199615823062221e-17  -7.2685806176564295e-18  -7.5223095199031359e-18  -3.2798373115047442e-18  -1.0876089911172973e-18  -2.9875468897288446e-19  -6.7704390240197159e-20  -1.1495209056392666e-20  -7.4730850246808981e-22  4.9369467472693734e-22  4.8949405064728858e-22  1.3985517653808599e-02  1.4006726163007579e-02  1.3789088054669522e-02  1.3053497129729856e-02  1.1020647010928216e-02  5.1085974774741187e-03  5.8229703882080501e-03  4.1826382956240016e-03  3.3008567210197123e-03  2.5322389283214970e-03  1.8963478371927696e-03  1.3893277765116680e-03  9.9684468250197506e-04  7.0080935347249036e-04  4.8283674179929419e-04  3.2601796312738032e-04  2.1571376625249077e-04  1.3984868669536884e-04  8.8817157095070581e-05  5.5244291676985348e-05  3.3645687900785272e-05  2.0058405673778210e-05  1.1701876122851306e-05  6.6781826895728180e-06  3.7269012055017208e-06  2.0331375697877744e-06  1.0837223997571877e-06  5.6415583771268731e-07  2.8667884829161754e-07  1.4212456763946406e-07  6.8700412445582025e-08  3.2357792932777719e-08  1.4839119071735534e-08  6.6204601054465436e-09  2.8708606005079811e-09  1.2086848287569045e-09  4.9345594047238246e-10  1.9506416663903715e-10  7.4529953407679369e-11  2.7464033074041460e-11  9.7339743987221563e-12  3.3064959727091526e-12  1.0713263595009940e-12  3.2886212372988148e-13  9.4669072807099198e-14  2.5128939946289169e-14  5.9574852619617683e-15  1.1699525069214383e-15  1.4272276310944719e-16  -1.8757457508092983e-17  -2.1309464840819218e-17  -9.6043229532401113e-18  -3.2740465314571661e-18  -9.2358023183686001e-19  -2.1513747941985356e-19  -3.7737639445818852e-20  -2.7262031654774814e-21  1.3871710449315453e-21  9.0405121406627883e-22  5.8262015119348925e-22  1.0609763764082869e-02  1.0710539880645627e-02  1.0252774787945456e-02  9.4937295680077288e-03  8.1134614444465201e-03  7.1769927428804760e-03  6.2355640524372948e-03  5.1336056421012579e-03  4.2730620627377406e-03  3.4895643309337120e-03  2.7784854270103796e-03  2.1559459851541018e-03  1.6324927787545018e-03  1.2078156463715955e-03  8.7393849264360516e-04  6.1876819979286390e-04  4.2882677301552978e-04  2.9095062779706043e-04  1.9326855151967638e-04  1.2568519377249152e-04  8.0011229179798732e-05  4.9852982280879448e-05  3.0396153592127435e-05  1.8131304206032678e-05  1.0577993282994360e-05  6.0340288355021252e-06  3.3641574586474542e-06  1.8325652064956227e-06  9.7488708456992350e-07  5.0623845427827083e-07  2.5646825560278289e-07  1.2668818608213090e-07  6.0979224544293881e-08  2.8579673073796849e-08  1.3031937305653490e-08  5.7761133179233152e-09  2.4858583746901392e-09  1.0375157541547903e-09  4.1933152986145131e-10  1.6383411439982390e-10  6.1745132289959441e-11  2.2386225694733534e-11  7.7807428268630250e-12  2.5803703131389417e-12  8.1111568323331295e-13  2.3927031763558035e-13  6.5159142950586655e-14  1.5885202666588987e-14  3.2276024422307000e-15  4.2021873090249295e-16  -4.4167361207380383e-17  -5.8917733204310663e-17  -2.7692444222645100e-17  -9.7517427713694352e-18  -2.8375666586293258e-18  -6.8333165585386679e-19  -1.2519027814706955e-19  -1.0409581045688475e-20  4.1914797143768651e-21  2.7753304217529744e-21  1.0646766358072502e-21  5.5114806180812863e-22  8.3460936291776412e-03  8.4652023932986539e-03  7.9866070378712632e-03  7.3606097547122681e-03  6.4443128916905554e-03  5.3554872933594842e-03  4.4564834470610876e-03  3.6879660148110933e-03  3.0097951184671077e-03  2.4066025190780872e-03  1.8803855005594548e-03  1.4349140970988630e-03  1.0696530033641447e-03  7.7925482897458847e-04  5.5501429198264167e-04  3.8658408495347897e-04  2.6338534063984130e-04  1.7554812217148328e-04  1.1446512672347302e-04  7.3014715547854424e-05  4.5556964329289499e-05  2.7800308703569131e-05  1.6588268552996062e-05  9.6759134859963586e-06  5.5157201656528538e-06  3.0716683156065735e-06  1.6704905338621554e-06  8.8676836388184307e-07  4.5925801986902167e-07  2.3192155263528219e-07  1.1412797635862877e-07  5.4689648521254251e-08  2.5499745460357402e-08  1.1558249115346521e-08  5.0877131792910265e-09  2.1722135455906184e-09  8.9828070845652563e-10  3.5917627011223018e-10  1.3857306805733673e-10  5.1449847061831314e-11  1.8321000815458675e-11  6.2287258919071802e-12  2.0089138567816281e-12  6.0882645487259849e-13  1.7070931546111219e-13  4.3035343232053739e-14  9.1429403346902121e-15  1.3113849903880171e-15  -7.6717203092239583e-17  -1.5663086005394279e-16  -7.8568103406197232e-17  -2.8895912476612895e-17  -8.7505802518893491e-18  -2.2016479006635537e-18  -4.2919683192085118e-19  -4.3906596011689308e-20  1.1257566841229027e-20  8.8480321066727120e-21  3.4405837431930466e-21  1.0245421798236570e-21  4.3502271649314873e-22  7.0724680508908629e-03  7.1938927035335356e-03  6.7451406945022423e-03  6.2251749603428252e-03  5.5369700322184037e-03  4.7549829670278827e-03  4.0097067281635659e-03  3.3313344935638933e-03  2.7231213922851395e-03  2.1830421884035753e-03  1.7123577976866752e-03  1.3126990494363889e-03  9.8312442839532154e-04  7.1935149687001282e-04  5.1432948175408498e-04  3.5942628137800985e-04  2.4554199468843584e-04  1.6400520751463463e-04  1.0710939056175798e-04  6.8396948810745128e-05  4.2702711354146675e-05  2.6063570762380221e-05  1.5548164342664593e-05  9.0633693029642735e-06  5.1610231602742739e-06  2.8699238114764953e-06  1.5577960984643862e-06  8.2499927358195150e-07  4.2605973615110802e-07  2.1443854500783071e-07  1.0511347654755074e-07  5.0142456148334640e-08  2.3257661520868531e-08  1.0478622273361976e-08  4.5805053059875031e-09  1.9399772092891978e-09  7.9476584674583089e-10  3.1431795165809313e-10  1.1970112332402830e-10  4.3755135907465466e-11  1.5286352212851069e-11  5.0738791020058993e-12  1.5861028296782778e-12  4.6046937785026628e-13  1.2107613840482269e-13  2.7318511454868946e-14  4.4842751286216885e-15  4.2649750631065196e-17  -3.8291510676693445e-16  -2.1649294379639316e-16  -8.4932292031900848e-17  -2.7161044928089283e-17  -7.2470874768941883e-18  -1.5366859078497507e-18  -2.0090912886070188e-19  2.1178806118733419e-20  2.6451387921505759e-20  1.1416218578477859e-20  3.5384238071614629e-21  8.5624168639123423e-22  2.7601639102144835e-22  6.6707070508987268e-03  6.8256062664059959e-03  6.3514532395043252e-03  5.8672897078504999e-03  5.2454669924644638e-03  4.5448491233053235e-03  3.8513362381926829e-03  3.2068265921232821e-03  2.6241346511343706e-03  2.1058658969686922e-03  1.6539537915508913e-03  1.2697571376240563e-03  9.5232677001914293e-04  6.9770963697594164e-04  4.9938594095214897e-04  3.4926253778425233e-04  2.3872654407271839e-04  1.5949304044512238e-04  1.0416131898415966e-04  6.6496335456424948e-05  4.1494205602315744e-05  2.5305797404506258e-05  1.5080340702512850e-05  8.7791307967900554e-06  4.9912075889730051e-06  2.7702091095854252e-06  1.5003228435954926e-06  7.9251515367123300e-07  4.0807217041503594e-07  2.0468950447838628e-07  9.9946579787704427e-08  4.7467225958688843e-08  2.1905802367337398e-08  9.8125815422583882e-09  4.2609054170663769e-09  1.7907822359612106e-09  7.2709457591734695e-10  2.8453571003186811e-10  1.0700323193094041e-10  3.8519934974064516e-11  1.3203711454413896e-11  4.2766038428917086e-12  1.2933966260234236e-12  3.5787511148409477e-13  8.6960271802632812e-14  1.6654951463105283e-14  1.3976999909865240e-15  -7.6252890076270246e-16  -5.6118400615833776e-16  -2.4404372456188355e-16  -8.4169479389632448e-17  -2.4224868285151731e-17  -5.6871180522912467e-18  -9.4245088461932394e-19  -1.5752034014556046e-20  6.8962762087804328e-20  3.5990556115346440e-20  1.2416903533210821e-20  3.2777402285105093e-21  6.3292733084685872e-22  9.4733114676207144e-23  </DataArray> 
</PointData> 
</Piece>
</UnstructuredGrid>
</VTKFile>