<?xml version="1.0"?>
<VTKFile type="UnstructuredGrid"  version="0.1"  >
<UnstructuredGrid>
<Piece  NumberOfPoints="670" NumberOfCells="1192">
<Points>
<DataArray  type="Float64"  NumberOfComponents="3"  format="ascii">0 0 0  0.04 -1.31357e-10 0  0.0400579 0.0400582 0  0 0.04 0  0.08 -2.62713e-10 0  0.080123 0.0401093 0  0.12 -3.9407e-10 0  0.120183 0.040127 0  0.16 -5.25427e-10 0  0.160176 0.0400597 0  0.2 -6.56784e-10 0  0.199997 0.0399142 0  0.24 -7.8814e-10 0  0.239816 0.0400642 0  0.28 -9.19497e-10 0  0.279804 0.0401377 0  0.32 -1.05085e-09 0  0.319855 0.0401297 0  0.36 -1.18221e-09 0  0.359906 0.0400945 0  0.4 -1.31357e-09 0  0.399941 0.0400609 0  0.44 -1.44492e-09 0  0.439962 0.0400367 0  0.48 -1.57628e-09 0  0.479975 0.0400214 0  0.52 -1.70764e-09 0  0.519983 0.0400122 0  0.5600000000000001 -1.83899e-09 0  0.559987 0.0400069 0  0.6 -1.97035e-09 0  0.59999 0.040004 0  0.64 -2.10171e-09 0  0.639993 0.0400023 0  0.68 -2.23306e-09 0  0.679994 0.0400013 0  0.72 -2.36442e-09 0  0.7199950000000001 0.0400008 0  0.76 -2.49578e-09 0  0.759996 0.0400005 0  0.8 -2.62713e-09 0  0.799997 0.0400002 0  0.84 -2.75849e-09 0  0.839997 0.0400001 0  0.88 -2.88985e-09 0  0.8799979999999999 0.04 0  0.92 -3.0212e-09 0  0.919999 0.0399999 0  0.96 -3.15256e-09 0  0.959999 0.0399998 0  1 -3.28392e-09 0  1 0.0399998 0  1.04 -3.41527e-09 0  1.04 0.0399998 0  1.08 -3.54663e-09 0  1.08 0.0399998 0  1.12 -3.67799e-09 0  1.12 0.0399998 0  1.16 -3.80934e-09 0  1.16 0.0399999 0  1.2 -3.9407e-09 0  1.2 0.04 0  1.24 -4.07206e-09 0  1.24 0.04 0  1.28 -4.20341e-09 0  1.28 0.0400001 0  1.32 -4.33477e-09 0  1.32 0.0400001 0  1.36 -4.46613e-09 0  1.36 0.04 0  1.4 -4.59748e-09 0  1.4 0.04 0  1.44 -4.72884e-09 0  1.44 0.04 0  1.48 -4.8602e-09 0  1.48 0.04 0  1.52 -4.99156e-09 0  1.52 0.04 0  1.56 -5.12291e-09 0  1.56 0.04 0  1.6 -5.25427e-09 0  1.6 0.0400001 0  1.64 -5.38563e-09 0  1.64 0.0400001 0  1.68 -5.51698e-09 0  1.68 0.04 0  1.72 -5.64834e-09 0  1.72 0.04 0  1.76 -5.7797e-09 0  1.76 0.04 0  1.8 -5.91105e-09 0  1.8 0.04 0  1.84 -6.04241e-09 0  1.84 0.04 0  1.88 -6.17377e-09 0  1.88 0.0400001 0  1.92 -6.30512e-09 0  1.92 0.0400001 0  1.96 -6.43648e-09 0  1.96 0.0400001 0  2 -6.56784e-09 0  2 0.0400001 0  2.04 -6.69919e-09 0  2.04 0.0400001 0  2.08 -6.83055e-09 0  2.08 0.04 0  2.12 -6.96191e-09 0  2.12 0.04 0  2.16 -7.09326e-09 0  2.16 0.0400001 0  2.2 -7.22462e-09 0  2.2 0.04 0  2.24 -7.35598e-09 0  2.24 0.04 0  2.28 -7.48733e-09 0  2.28 0.0399999 0  2.32 -7.618690000000001e-09 0  2.32 0.04 0  2.36 -7.750049999999999e-09 0  2.36 0.04 0  2.4 -7.8814e-09 0  2.4 0.04 0  0.0401088 0.0801235 0  0 0.08 0  0.0802509 0.0802518 0  0.120434 0.0803392 0  0.160522 0.0801977 0  0.199995 0.0795328 0  0.239464 0.0802049 0  0.279544 0.08035689999999999 0  0.319711 0.0802867 0  0.359828 0.08018740000000001 0  0.399896 0.0801123 0  0.439933 0.0800646 0  0.479955 0.0800365 0  0.519968 0.08002049999999999 0  0.559976 0.0800116 0  0.599982 0.0800066 0  0.6399860000000001 0.0800039 0  0.679989 0.0800023 0  0.719991 0.0800014 0  0.759992 0.0800008 0  0.799994 0.0800004 0  0.839995 0.08000019999999999 0  0.879996 0.0799999 0  0.919997 0.07999970000000001 0  0.959999 0.0799996 0  1 0.0799995 0  1.04 0.0799995 0  1.08 0.0799996 0  1.12 0.07999970000000001 0  1.16 0.0799998 0  1.2 0.08 0  1.24 0.0800001 0  1.28 0.0800001 0  1.32 0.0800001 0  1.36 0.08 0  1.4 0.0799999 0  1.44 0.0799999 0  1.48 0.0799999 0  1.52 0.0799999 0  1.56 0.08 0  1.6 0.0800001 0  1.64 0.0800001 0  1.68 0.08 0  1.72 0.0799999 0  1.76 0.0799999 0  1.8 0.0799999 0  1.84 0.0799999 0  1.88 0.08 0  1.92 0.0800001 0  1.96 0.0800001 0  2 0.0800001 0  2.04 0.08 0  2.08 0.0799999 0  2.12 0.0799999 0  2.16 0.08 0  2.2 0.08 0  2.24 0.0799999 0  2.28 0.0799998 0  2.32 0.0799999 0  2.36 0.0799999 0  2.4 0.08 0  0.0401262 0.120184 0  0 0.12 0  0.0803378 0.120435 0  0.120779 0.12078 0  0.161485 0.120859 0  0.199996 0.117814 0  0.238503 0.120866 0  0.279195 0.120798 0  0.319616 0.120473 0  0.359799 0.120256 0  0.39988 0.120136 0  0.439921 0.120073 0  0.479944 0.120039 0  0.519958 0.120022 0  0.5599690000000001 0.120012 0  0.599976 0.120007 0  0.639981 0.120004 0  0.679985 0.120002 0  0.719987 0.120002 0  0.7599900000000001 0.120001 0  0.799991 0.12 0  0.839993 0.12 0  0.879995 0.12 0  0.919996 0.12 0  0.959998 0.119999 0  1 0.119999 0  1.04 0.119999 0  1.08 0.119999 0  1.12 0.12 0  1.16 0.12 0  1.2 0.12 0  1.24 0.12 0  1.28 0.12 0  1.32 0.12 0  1.36 0.12 0  1.4 0.12 0  1.44 0.12 0  1.48 0.12 0  1.52 0.12 0  1.56 0.12 0  1.6 0.12 0  1.64 0.12 0  1.68 0.12 0  1.72 0.12 0  1.76 0.12 0  1.8 0.12 0  1.84 0.12 0  1.88 0.12 0  1.92 0.12 0  1.96 0.12 0  2 0.12 0  2.04 0.12 0  2.08 0.12 0  2.12 0.12 0  2.16 0.12 0  2.2 0.12 0  2.24 0.12 0  2.28 0.12 0  2.32 0.12 0  2.36 0.12 0  2.4 0.12 0  0.0400582 0.160177 0  0 0.16 0  0.0801954 0.160525 0  0.120857 0.161488 0  0.164645 0.164645 0  0.2 0.15 0  0.235355 0.164645 0  0.279119 0.161498 0  0.319759 0.16055 0  0.359874 0.160228 0  0.399906 0.160104 0  0.439925 0.160051 0  0.479941 0.160027 0  0.519954 0.160014 0  0.559964 0.160008 0  0.5999719999999999 0.160005 0  0.639978 0.160003 0  0.679982 0.160002 0  0.719985 0.160001 0  0.759988 0.160001 0  0.79999 0.16 0  0.839992 0.16 0  0.8799940000000001 0.16 0  0.919996 0.159999 0  0.959998 0.159999 0  1 0.159999 0  1.04 0.159999 0  1.08 0.159999 0  1.12 0.16 0  1.16 0.16 0  1.2 0.16 0  1.24 0.16 0  1.28 0.16 0  1.32 0.16 0  1.36 0.16 0  1.4 0.16 0  1.44 0.16 0  1.48 0.16 0  1.52 0.16 0  1.56 0.16 0  1.6 0.16 0  1.64 0.16 0  1.68 0.16 0  1.72 0.16 0  1.76 0.16 0  1.8 0.16 0  1.84 0.16 0  1.88 0.16 0  1.92 0.16 0  1.96 0.16 0  2 0.16 0  2.04 0.16 0  2.08 0.16 0  2.12 0.16 0  2.16 0.16 0  2.2 0.16 0  2.24 0.16 0  2.28 0.16 0  2.32 0.16 0  2.36 0.16 0  2.4 0.16 0  0.0399111 0.2 0  0 0.2 0  0.0795281 0.2 0  0.117811 0.2 0  0.15 0.2 0  0.282167 0.2 0  0.25 0.2 0  0.320429 0.2 0  0.36003 0.200001 0  0.399944 0.200001 0  0.439934 0.200001 0  0.479942 0.200001 0  0.519953 0.200001 0  0.559963 0.200001 0  0.59997 0.200001 0  0.639976 0.200001 0  0.6799809999999999 0.200001 0  0.719984 0.200001 0  0.759987 0.200001 0  0.799989 0.2 0  0.839991 0.2 0  0.879993 0.2 0  0.919996 0.199999 0  0.959998 0.199999 0  1 0.199999 0  1.04 0.199999 0  1.08 0.199999 0  1.12 0.2 0  1.16 0.2 0  1.2 0.2 0  1.24 0.2 0  1.28 0.2 0  1.32 0.2 0  1.36 0.2 0  1.4 0.2 0  1.44 0.2 0  1.48 0.2 0  1.52 0.2 0  1.56 0.2 0  1.6 0.2 0  1.64 0.2 0  1.68 0.2 0  1.72 0.2 0  1.76 0.2 0  1.8 0.2 0  1.84 0.2 0  1.88 0.2 0  1.92 0.2 0  1.96 0.2 0  2 0.2 0  2.04 0.2 0  2.08 0.2 0  2.12 0.2 0  2.16 0.2 0  2.2 0.2 0  2.24 0.2 0  2.28 0.2 0  2.32 0.2 0  2.36 0.2 0  2.4 0.2 0  0.0400582 0.239823 0  0 0.24 0  0.0801953 0.239475 0  0.120857 0.238513 0  0.164645 0.235355 0  0.279119 0.238502 0  0.235355 0.235355 0  0.319759 0.239451 0  0.359873 0.239774 0  0.399905 0.239898 0  0.439925 0.239951 0  0.479941 0.239976 0  0.519954 0.239988 0  0.559964 0.239994 0  0.5999719999999999 0.239997 0  0.639977 0.239999 0  0.679982 0.24 0  0.719985 0.24 0  0.759987 0.24 0  0.79999 0.24 0  0.839992 0.24 0  0.8799940000000001 0.24 0  0.919996 0.239999 0  0.959998 0.239999 0  1 0.239999 0  1.04 0.239999 0  1.08 0.239999 0  1.12 0.24 0  1.16 0.24 0  1.2 0.24 0  1.24 0.24 0  1.28 0.24 0  1.32 0.24 0  1.36 0.24 0  1.4 0.24 0  1.44 0.24 0  1.48 0.24 0  1.52 0.24 0  1.56 0.24 0  1.6 0.24 0  1.64 0.24 0  1.68 0.24 0  1.72 0.24 0  1.76 0.24 0  1.8 0.24 0  1.84 0.24 0  1.88 0.24 0  1.92 0.24 0  1.96 0.24 0  2 0.24 0  2.04 0.24 0  2.08 0.24 0  2.12 0.24 0  2.16 0.24 0  2.2 0.24 0  2.24 0.24 0  2.28 0.24 0  2.32 0.24 0  2.36 0.24 0  2.4 0.24 0  0.0401261 0.279816 0  0 0.28 0  0.0803376 0.279565 0  0.120778 0.27922 0  0.161485 0.279141 0  0.2 0.25 0  0.199996 0.282186 0  0.238503 0.279135 0  0.279195 0.279202 0  0.319616 0.279528 0  0.359799 0.279745 0  0.39988 0.279865 0  0.43992 0.279929 0  0.479944 0.279962 0  0.519958 0.27998 0  0.559968 0.27999 0  0.599976 0.279995 0  0.639981 0.279998 0  0.679984 0.279999 0  0.719987 0.28 0  0.759989 0.28 0  0.799991 0.28 0  0.839993 0.28 0  0.879995 0.28 0  0.919997 0.279999 0  0.959998 0.279999 0  1 0.279999 0  1.04 0.279999 0  1.08 0.28 0  1.12 0.28 0  1.16 0.28 0  1.2 0.28 0  1.24 0.28 0  1.28 0.28 0  1.32 0.28 0  1.36 0.28 0  1.4 0.28 0  1.44 0.28 0  1.48 0.28 0  1.52 0.28 0  1.56 0.28 0  1.6 0.28 0  1.64 0.28 0  1.68 0.28 0  1.72 0.28 0  1.76 0.28 0  1.8 0.28 0  1.84 0.28 0  1.88 0.28 0  1.92 0.28 0  1.96 0.28 0  2 0.28 0  2.04 0.28 0  2.08 0.28 0  2.12 0.28 0  2.16 0.28 0  2.2 0.28 0  2.24 0.28 0  2.28 0.28 0  2.32 0.28 0  2.36 0.28 0  2.4 0.28 0  0.0401086 0.319877 0  0 0.32 0  0.08025060000000001 0.319748 0  0.120433 0.319661 0  0.160522 0.319802 0  0.199995 0.320467 0  0.239464 0.319795 0  0.279543 0.319643 0  0.31971 0.319714 0  0.359828 0.319813 0  0.399895 0.319889 0  0.439933 0.319937 0  0.479955 0.319965 0  0.519968 0.319981 0  0.559976 0.31999 0  0.599982 0.319995 0  0.6399860000000001 0.319998 0  0.679989 0.319999 0  0.719991 0.32 0  0.759992 0.32 0  0.799994 0.32 0  0.839995 0.32 0  0.879996 0.32 0  0.919998 0.32 0  0.959999 0.32 0  1 0.32 0  1.04 0.32 0  1.08 0.32 0  1.12 0.32 0  1.16 0.32 0  1.2 0.32 0  1.24 0.32 0  1.28 0.32 0  1.32 0.32 0  1.36 0.32 0  1.4 0.32 0  1.44 0.32 0  1.48 0.32 0  1.52 0.32 0  1.56 0.32 0  1.6 0.32 0  1.64 0.32 0  1.68 0.32 0  1.72 0.32 0  1.76 0.32 0  1.8 0.32 0  1.84 0.32 0  1.88 0.32 0  1.92 0.32 0  1.96 0.32 0  2 0.32 0  2.04 0.32 0  2.08 0.32 0  2.12 0.32 0  2.16 0.32 0  2.2 0.32 0  2.24 0.32 0  2.28 0.32 0  2.32 0.32 0  2.36 0.32 0  2.4 0.32 0  0.0400579 0.359942 0  0 0.36 0  0.0801229 0.359891 0  0.120183 0.359873 0  0.160175 0.35994 0  0.199997 0.360086 0  0.239816 0.359936 0  0.279804 0.359862 0  0.319855 0.359871 0  0.359906 0.359906 0  0.399941 0.35994 0  0.439962 0.359964 0  0.479975 0.359979 0  0.5199820000000001 0.359989 0  0.559987 0.359994 0  0.59999 0.359997 0  0.639993 0.359998 0  0.679994 0.359999 0  0.7199950000000001 0.36 0  0.759996 0.36 0  0.799997 0.36 0  0.839997 0.36 0  0.8799979999999999 0.36 0  0
[...]
<PointData  Scalars="f_10391-0"> 
<DataArray  type="Float64"  Name="f_10391-0"  format="ascii">1.2882056693204033e-02  1.3544276305103383e-02  1.4576986226605554e-02  1.3535687512441372e-02  1.4075936569077525e-02  1.5915687532986434e-02  1.2747479902037378e-02  1.4355929293223851e-02  9.8187187030674763e-03  1.0554670577069707e-02  6.7852480429770306e-03  7.0686730747894794e-03  4.3147175800768399e-03  4.4005715013775565e-03  2.5597711755304172e-03  2.5680551736464033e-03  1.4259455650275036e-03  1.4117302519536055e-03  7.4751919412306168e-04  7.3181931780655286e-04  3.6872904481321627e-04  3.5724910330864898e-04  1.7089131929174219e-04  1.6379334323153385e-04  7.4243223705923022e-05  7.0287137315588167e-05  3.0146681321329262e-05  2.8115112052306775e-05  1.1400568053549358e-05  1.0432520592838870e-05  3.9982138056644271e-06  3.5694128444754439e-06  1.2935049001061391e-06  1.1172394905220634e-06  3.8341178114942616e-07  3.1644018327986108e-07  1.0315770264931326e-07  7.9736843544552314e-08  2.4846972880620237e-08  1.7352947271986891e-08  5.2373639767602575e-09  3.0607232441267823e-09  9.2467272742353105e-10  3.5721444654533019e-10  1.2230326674979765e-10  -8.2303793467673389e-12  6.7431466916790935e-12  -1.8955879703974921e-11  -2.2012036068754049e-12  -6.2564522407432142e-12  -9.1405173053165353e-13  -1.3288899436786308e-12  -2.0000416897669307e-13  -1.8889227947807313e-13  -2.8718117612743159e-14  -1.0962170057818499e-14  -2.0103150059150503e-15  2.9167248684274445e-15  2.5357634980883463e-16  1.1064679821964617e-15  1.1126077634083072e-16  1.9963884212747021e-16  1.9518624214565419e-17  1.9284202394877663e-17  1.8043330954006711e-18  -4.4077277773391294e-19  -2.5842635749990355e-20  -5.2948236055568353e-19  -3.8852505230477133e-20  -9.8516285302275256e-20  -6.6026856783339131e-21  -8.6235805085678298e-21  -5.0171319474698534e-22  2.1314311784032963e-22  1.7444137556503803e-23  1.7932862464222265e-22  9.3606730052058933e-24  2.5229771415539068e-23  1.0661862861575019e-24  1.2192358953978215e-24  2.8214425460856588e-26  -1.5760626087761667e-25  -7.8892049531301922e-27  -3.4623843656582208e-26  -1.1149699117812852e-27  -2.3940452303848603e-27  -3.8572206652741474e-29  8.0283775227089850e-29  5.8168553329980831e-30  2.9327670703673936e-29  7.9697991725710698e-31  2.0033052800957052e-30  2.5271391626454417e-32  -4.4857359116295253e-32  -2.3511327866047664e-33  -1.4878800766813724e-32  -1.8669193225479928e-34  -5.1379938177639895e-34  6.8450695789127428e-36  5.5135523508699513e-35  9.8238710551013021e-37  3.9417471557450247e-36  -2.6490424525015727e-38  -2.0493298947853350e-37  -4.9166146849138903e-39  -2.1584250798209606e-38  1.4992596621774701e-40  9.4669895762791008e-40  2.3326283792184177e-41  1.0564610656923545e-40  -1.0594685115152133e-42  -5.5110064116334326e-42  -9.8389551234888625e-44  -4.5602968105233754e-43  7.3538663211278195e-45  3.5042361675979125e-44  2.9630874440279870e-46  1.4772647119674527e-45  -4.4037595383031226e-47  -2.0806971962398720e-46  -2.5239077682509108e-49  -1.8125899897586061e-48  1.5889996355191494e-02  1.4042326304849733e-02  1.9788036268530398e-02  1.8509809651570744e-02  1.2395591586573534e-02  7.6842209577920534e-03  4.5455880562551019e-03  2.5522712468739805e-03  1.3659392113273701e-03  6.9486145567732179e-04  3.3429029046431655e-04  1.5127825176477810e-04  6.4042901259218048e-05  2.5218553122183152e-05  9.1762715280538812e-06  3.0601114540370234e-06  9.2491545901537586e-07  2.4914378735607126e-07  5.8100470602442590e-08  1.1034010459115645e-08  1.4122458204545630e-09  -1.5994100140835480e-11  -7.7317537713628648e-11  -2.7698034431206666e-11  -6.2384343790640953e-12  -9.0759209330968028e-13  -3.7836769460532106e-14  2.3384535906077130e-14  8.2902674849164740e-15  1.5434780167697569e-15  1.5167306264690505e-16  -6.7500227084930045e-18  -5.7516597739086977e-18  -1.1366380237408359e-18  -1.0910236305899501e-19  2.6559234825403395e-21  2.7208735065694394e-21  4.4298869370458058e-22  2.8432886983242255e-23  -2.5053080642657139e-24  -7.9199886460987089e-25  -7.7707668820747192e-26  -5.7153689422392616e-28  7.6945423505930207e-28  8.8759741264980206e-29  2.1148799777244303e-30  -4.5834108616332244e-31  -4.1280233324235344e-32  1.0363677247641543e-33  3.3937991362070769e-34  9.8364358003874658e-36  -1.4547597898196977e-36  -8.3312443650533568e-38  6.0441817245503451e-39  4.5254938968920321e-40  -2.9165605514113309e-41  -1.9984421292885572e-42  1.6400392133153340e-43  6.7075885534677041e-45  -9.2781077794488652e-46  -1.3153042878676136e-47  1.4292368155399335e-02  1.2678302088155805e-02  1.8467233569421818e-02  1.8281456726601107e-02  1.2795109172575248e-02  7.8313983796769061e-03  4.3760653591119018e-03  2.3464127345293254e-03  1.2249270604665571e-03  6.1433350707924491e-04  2.9254631663717321e-04  1.3110402756644191e-04  5.4880579762864618e-05  2.1300205842992058e-05  7.6004446738629765e-06  2.4667244892870525e-06  7.1687135102312783e-07  1.8179529173404981e-07  3.8213979085329077e-08  5.7756615822937031e-09  2.0753167262668854e-10  -2.3901434143940478e-10  -1.0370628346993339e-10  -2.6293400298418491e-11  -4.3018999792010771e-12  -2.4684094889251505e-13  1.0916192986614956e-13  4.4565197351477039e-14  9.0624668356692882e-15  9.4008583286264036e-16  -6.0374962374880844e-17  -4.6997571778097570e-17  -9.9577425126978262e-18  -1.0346092563278531e-18  2.9925823978532840e-20  3.1916937806023359e-20  5.8114188113782122e-21  4.4531470511610730e-22  -3.1964730372239437e-23  -1.3386292776655800e-23  -1.6225032231941494e-24  -4.4457487187903282e-26  1.5482741340237782e-26  2.4961886789279294e-27  1.2261046858007415e-28  -1.0833040453633298e-29  -1.9490599665392437e-30  -5.7217288803102093e-32  1.1255411187449847e-32  1.0951988894087280e-33  -1.8056430322500502e-35  -7.6466003988226949e-36  -1.7860819728291252e-37  3.5405934767066075e-38  1.5165636352041155e-39  -1.5760680246921870e-40  -7.4013946536808454e-42  7.8354770519080016e-43  2.5160027655480525e-44  -4.0899170809559178e-45  -4.0076456155105933e-47  1.0454962864790914e-02  9.7164284034717517e-03  1.2308338168160760e-02  1.2740174525807028e-02  1.0887735645393345e-02  7.4519168140242866e-03  3.3710580958406784e-03  1.7916712605459538e-03  9.4884823600541158e-04  4.8173111798489057e-04  2.3082238177264068e-04  1.0345654792500892e-04  4.3055868813314180e-05  1.6506515001540349e-05  5.7712723258487215e-06  1.8142653506753909e-06  5.0122741326685411e-07  1.1652729732166930e-07  2.0435254600064460e-08  1.5466199199178308e-09  -6.1754096137157501e-10  -3.4775827733320940e-10  -1.0203364854265985e-10  -1.9620845401496495e-11  -1.8116391943109473e-12  3.3693252707499060e-13  1.9518240723934250e-13  4.6546659455103016e-14  5.8195849972502333e-15  -1.8164702437357985e-16  -2.7231874431988070e-16  -6.6274278233400381e-17  -7.7604808162649703e-18  2.0172815596297845e-19  2.7773731132863593e-19  5.6574242217620928e-20  4.9396662684040164e-21  -3.3581198810004606e-22  -1.7038608393169905e-22  -2.3757444095006172e-23  -8.8916292484816136e-25  2.5298008556362783e-25  4.9848026964442359e-26  3.1850082098872008e-27  -2.2969458590158081e-28  -6.1421553080244373e-29  -3.7567322031758779e-30  2.5655478586693722e-31  5.6553945507047321e-32  2.4514851872365692e-33  -2.1691229552505508e-34  -2.5231174639954327e-35  3.1301115353822146e-37  1.5234752766704838e-37  1.7663575761053051e-39  -7.6644808146224941e-40  -1.5244395671389830e-41  3.6723676302998078e-42  4.7198510931487216e-44  -1.7998765829444117e-44  2.5395841971184348e-46  6.9492046749516246e-03  6.6659978517116482e-03  7.5696726019750735e-03  7.7344440608264368e-03  7.3744804889339472e-03  1.0004348000520942e-03  1.4762458810546795e-03  6.0586496871777756e-04  3.2730826934527916e-04  1.6137166242309118e-04  7.3104108014322038e-05  3.0377434535663878e-05  1.1500117808806339e-05  3.9193827115089548e-06  1.1786343823414157e-06  3.0107361435325812e-07  5.9653721825044031e-08  6.2519364796442712e-09  -1.3876369254785964e-09  -1.0451857612776124e-09  -3.5404276451582344e-10  -7.9355645042264959e-11  -1.0128040173903508e-11  6.1759542013883039e-13  7.3968454659955606e-13  2.1629248262933379e-13  3.4382419116836978e-14  8.8587613844527616e-16  -1.1870531326388275e-15  -3.6552682604249209e-16  -5.2403278739905520e-17  -2.4613270856528537e-19  1.7235497673002846e-18  4.1338166369219756e-19  4.1210305998131236e-20  -2.7663086829187922e-21  -1.6471367152059517e-21  -2.5380693926855262e-22  -9.8726047207664915e-24  3.5256392085866036e-24  7.6298457691519196e-25  5.4877066419876681e-26  -4.4933703631366417e-27  -1.4259407949930369e-27  -1.1792846163106392e-28  4.1060215540147950e-30  1.8159799957511993e-30  1.4582028691457389e-31  -2.3331489580738678e-33  -1.2489203471101074e-33  -6.3424614117726139e-35  3.9271426118206376e-36  4.4465626388472059e-37  -1.3362020669623813e-38  -2.6852079044203609e-39  5.0748846551073434e-41  1.4668734905368720e-41  -2.9409297939776587e-43  -7.3145815382778051e-44  5.0655329900532999e-45  4.2879445343478144e-03  4.2042560741551637e-03  4.4337374820817297e-03  4.2787775843163185e-03  3.2997914504499623e-03  6.2368472838836991e-04  8.6427968366301891e-04  3.7795586835521317e-04  2.0663821020058321e-04  1.0288104165350965e-04  4.6696264483448151e-05  1.9240891039572491e-05  7.1278269920628586e-06  2.3320478071608704e-06  6.5109601912015878e-07  1.4311415134039174e-07  1.8173211412709770e-08  -2.7823242029435884e-09  -2.7736365002163343e-09  -1.0658636740850483e-09  -2.7145506593486691e-10  -4.2578825244849698e-11  1.7991017552161582e-14  2.4994337734762131e-12  8.9395509650873252e-13  1.7441172901995126e-13  1.2617569318604189e-14  -4.1875496824781293e-15  -1.7744632407768326e-15  -3.1933622182213219e-16  -1.4634598408071872e-17  8.2688273548802773e-18  2.5177635455293936e-18  3.0044773981917387e-19  -1.5102006396134965e-20  -1.2535144572381351e-20  -2.1423821958911569e-21  -7.8425028759339314e-23  4.0697665700202426e-23  9.3595401977744460e-24  7.2474478423079332e-25  -7.3153186788514807e-26  -2.5367732474243763e-26  -2.5233200825465006e-27  4.4551279907604080e-29  4.1559010580458146e-29  4.4890738926934849e-30  3.9042518471481515e-32  -3.8683319989058848e-32  -3.5298800127889623e-33  3.6067188593726236e-35  2.4891104441116986e-35  8.4653641014992361e-37  -1.1178143894673073e-37  -6.1469492364637206e-39  6.3111869406514161e-40  3.9826874602266095e-41  -3.7663084041538704e-42  -2.2991977091475397e-43  4.5935513364323124e-44  2.4934438883112220e-03  2.4878649314911644e-03  2.4755261698919135e-03  2.2794728722528219e-03  1.7469297130391118e-03  1.4489409629186477e-03  9.8278136793832614e-04  6.1970646098146581e-04  3.8367377823520882e-04  2.2534386622025340e-04  1.2225165652442069e-04  6.0534292648483151e-05  2.7164979855322812e-05  1.0941077308474286e-05  3.8890713789562433e-06  1.1809134771685827e-06  2.8392408589399718e-07  4.0832283456534730e-08  -5.2933652129061678e-09  -6.4889217146776434e-09  -2.7595470193413463e-09  -7.7641742836155334e-10  -1.3846618749925793e-10  -3.5439679246848021e-12  7.8911450071157549e-12  3.2768311776467794e-12  7.3455378920642645e-13  7.3048407209239024e-14  -1.4439166884101598e-14  -8.1448141202220643e-15  -1.7482747495429327e-15  -1.3337673189502635e-16  3.7592524522753394e-17  1.4907626394803311e-17  2.1859847971814710e-18  -3.8563548435445688e-20  -8.6026452140858505e-20  -1.7405499859207138e-20  -8.7911455180209982e-22  3.5696021798799423e-22  9.6440846050343894e-23  8.7989141536841275e-24  -8.0409118616427750e-25  -3.4464585386265584e-25  -4.0554777114826759e-26  2.0655183808729865e-28  7.2687425645757668e-28  9.5401300925955995e-29  1.8726370932328520e-30  -9.5088422327926062e-31  -1.1413841857502883e-31  -5.1071007337992349e-34  9.9357255927630356e-34  6.9787374015729601e-35  -3.6517988073605120e-36  -6.5610416823589418e-37  1.9393172625535471e-40  3.9556019014696952e-39  4.7094272673736521e-41  -2.4012331090280738e-41  -3.7929314662314584e-43  2.9514538722057963e-43  1.4086507520334741e-03  1.4255612319320442e-03  1.3579142071168590e-03  1.2176836871027113e-03  9.4902248343371536e-04  6.1391676524733907e-04  3.8734161711073380e-04  2.3201583089023123e-04  1.3192506146779453e-04  6.9732662829866164e-05  3.3681359956044584e-05  1.4642194462049087e-05  5.6188974708657727e-06  1.8399481302432222e-06  4.7570670272621181e-07  7.2642818816409158e-08  -1.1118558997220589e-08  -1.3993660003321733e-08  -6.3685231663132607e-09  -1.9222030402949318e-09  -3.6616862335747616e-10  -8.1751068542385773e-12  2.5332325319927656e-11  1.1251917011472069e-11  2.7285007567709519e-12  2.9781661249432222e-13  -6.1290697956240204e-14  -3.8535893598160452e-14  -9.2675184386390886e-15  -8.9031736283392770e-16  1.9057136953109608e-16  9.5329774766714002e-17  1.7344877134145287e-17  4.8995937997464083e-19  -5.6625579354770980e-19  -1.5183330631464191e-19  -1.4097033314879808e-20  2.0714911698068977e-21  8.7962181214865316e-22  1.1309074179103279e-22  -3.1571538443239771e-24  -3.5418033501909575e-24  -5.3765168653225859e-25  -8.7081755271763259e-27  9.7913079968549005e-27  1.5906890609079561e-27  4.5310208641560133e-29  -1.9663406468141150e-29  -2.9384369553877225e-30  -4.7168288429179805e-32  3.2112758557305724e-32  3.4534361454475907e-33  -5.0432340845176402e-35  -3.6284687634476566e-35  -1.9070152403652761e-36  1.7245649456530532e-37  2.0516116708532525e-38  -4.3454152215931920e-40  -1.3057931039293346e-40  9.4632366919414392e-43  1.5711428430328417e-42  8.4701146649503352e-04  8.6930633438517832e-04  7.9830616263684695e-04  7.0421520801759849e-04  5.5636675382453608e-04  3.8446693726411590e-04  2.4577588724271593e-04  1.4594557633197051e-04  8.0835272175649458e-05  4.1304394242188425e-05  1.9139536543264270e-05  7.8605135038976600e-06  2.7558814329209138e-06  7.5872195206770307e-07  1.1878984178721605e-07  -2.5221187304593661e-08  -3.0284839912348394e-08  -1.4611049334014997e-08  -4.7193957878332894e-09  -9.5899478110492181e-10  -1.5914909612311967e-11  8.2093623012850783e-11  3.9230353591544670e-11  1.0441389106207994e-11  1.3195297257659268e-12  -2.3825758872166262e-13  -1.8212478377118322e-13  -5.0901688980215225e-14  -6.5817106631147227e-15  7.3445350765457315e-16  5.8526857813674752e-16  1.3873231505800829e-16  1.1972861308908380e-17  -2.8946796133600509e-18  -1.2438110331287467e-18  -1.9185127477442044e-19  8.2264323405337548e-22  6.7343559290139245e-21  1.3725451388516470e-21  6.6714295877119976e-23  -2.6524128655545994e-23  -6.4369660860334755e-24  -3.9808919943358149e-25  9.1656210693047778e-26  2.2842455530561611e-26  1.3052226149401935e-27  -2.8559799655181658e-28  -6.2656133326891840e-29  -2.8284308910789619e-30  6.8822362825345997e-31  1.2021649274237963e-31  3.3406179774759785e-33  -1.1411871804636092e-33  -1.3632427133681932e-34  5.0727747730088985e-37  1.2171426199369023e-36  6.4830271280184569e-38  -5.6240216754359672e-39  -6.1580140281275830e-40  1.8156239529999788e-41  7.6407388380712974e-42  6.7817277935517414e-04  7.1838089818659315e-04  6.2898028873661124e-04  5.4987261663893487e-04  4.3602171143458191e-04  3.0718427836468092e-04  1.9714054481476424e-04  1.1634433184623252e-04  6.3357381728068612e-05  3.1541236007220618e-05  1.4078982246061500e-05  5.4550088843871846e-06  1.7185573353786861e-06  3.5940967333500300e-07  -1.4208684848550263e-08  -6.0832816701938077e-08  -3.6139601003373825e-08  -1.3832858774734347e-08  -3.5482608599787675e-09  -3.6724652596953098e-10  1.8701023914197606e-10  1.2967813347269364e-10  4.3848240155628805e-11  8.3508472007113350e-12  -4.4320275998607479e-14  -6.7117794259419008e-13  -2.6050395486166530e-13  -5.1382914825308024e-14  -1.5207502560019548e-15  2.5950167416979548e-15  9.2701171101197950e-16  1.4777175629498784e-16  -2.8381023817583337e-18  -7.6717605021248780e-18  -1.9014025186726073e-18  -1.6288352444256935e-19  3.3927294499091732e-20  1.3382819269007169e-20  1.6830558674942149e-21  -8.6561225595226988e-23  -6.5947048703455583e-23  -9.1565671408829914e-24  2.4151059512378412e-25  2.7214558911080901e-25  3.5116936563091854e-26  -1.3021179280391096e-27  -9.7233898104608219e-28  -1.0522489800164324e-28  5.4120610758739710e-30  2.6194962451596119e-30  2.2497038452582780e-31  -1.4437113700926826e-32  -4.6080316885027525e-33  -2.6546414099569262e-34  2.7778910782949434e-35  4.7516733486313358e-36  7.1501483042915927e-38  -3.3675064194753152e-38  -2.0470134661323715e-39  1.5150257604492258e-40  2.8193432371590007e-41  </DataArray> 
</PointData> 
</Piece>
</UnstructuredGrid>
</VTKFile>