<?xml version="1.0"?>
<VTKFile type="UnstructuredGrid"  version="0.1"  >
<UnstructuredGrid>
<Piece  NumberOfPoints="670" NumberOfCells="1192">
<Points>
<DataArray  type="Float64"  NumberOfComponents="3"  format="ascii">0 0 0  0.04 -1.31357e-10 0  0.0400579 0.0400582 0  0 0.04 0  0.08 -2.62713e-10 0  0.080123 0.0401093 0  0.12 -3.9407e-10 0  0.120183 0.040127 0  0.16 -5.25427e-10 0  0.160176 0.0400597 0  0.2 -6.56784e-10 0  0.199997 0.0399142 0  0.24 -7.8814e-10 0  0.239816 0.0400642 0  0.28 -9.19497e-10 0  0.279804 0.0401377 0  0.32 -1.05085e-09 0  0.319855 0.0401297 0  0.36 -1.18221e-09 0  0.359906 0.0400945 0  0.4 -1.31357e-09 0  0.399941 0.0400609 0  0.44 -1.44492e-09 0  0.439962 0.0400367 0  0.48 -1.57628e-09 0  0.479975 0.0400214 0  0.52 -1.70764e-09 0  0.519983 0.0400122 0  0.5600000000000001 -1.83899e-09 0  0.559987 0.0400069 0  0.6 -1.97035e-09 0  0.59999 0.040004 0  0.64 -2.10171e-09 0  0.639993 0.0400023 0  0.68 -2.23306e-09 0  0.679994 0.0400013 0  0.72 -2.36442e-09 0  0.7199950000000001 0.0400008 0  0.76 -2.49578e-09 0  0.759996 0.0400005 0  0.8 -2.62713e-09 0  0.799997 0.0400002 0  0.84 -2.75849e-09 0  0.839997 0.0400001 0  0.88 -2.88985e-09 0  0.8799979999999999 0.04 0  0.92 -3.0212e-09 0  0.919999 0.0399999 0  0.96 -3.15256e-09 0  0.959999 0.0399998 0  1 -3.28392e-09 0  1 0.0399998 0  1.04 -3.41527e-09 0  1.04 0.0399998 0  1.08 -3.54663e-09 0  1.08 0.0399998 0  1.12 -3.67799e-09 0  1.12 0.0399998 0  1.16 -3.80934e-09 0  1.16 0.0399999 0  1.2 -3.9407e-09 0  1.2 0.04 0  1.24 -4.07206e-09 0  1.24 0.04 0  1.28 -4.20341e-09 0  1.28 0.0400001 0  1.32 -4.33477e-09 0  1.32 0.0400001 0  1.36 -4.46613e-09 0  1.36 0.04 0  1.4 -4.59748e-09 0  1.4 0.04 0  1.44 -4.72884e-09 0  1.44 0.04 0  1.48 -4.8602e-09 0  1.48 0.04 0  1.52 -4.99156e-09 0  1.52 0.04 0  1.56 -5.12291e-09 0  1.56 0.04 0  1.6 -5.25427e-09 0  1.6 0.0400001 0  1.64 -5.38563e-09 0  1.64 0.0400001 0  1.68 -5.51698e-09 0  1.68 0.04 0  1.72 -5.64834e-09 0  1.72 0.04 0  1.76 -5.7797e-09 0  1.76 0.04 0  1.8 -5.91105e-09 0  1.8 0.04 0  1.84 -6.04241e-09 0  1.84 0.04 0  1.88 -6.17377e-09 0  1.88 0.0400001 0  1.92 -6.30512e-09 0  1.92 0.0400001 0  1.96 -6.43648e-09 0  1.96 0.0400001 0  2 -6.56784e-09 0  2 0.0400001 0  2.04 -6.69919e-09 0  2.04 0.0400001 0  2.08 -6.83055e-09 0  2.08 0.04 0  2.12 -6.96191e-09 0  2.12 0.04 0  2.16 -7.09326e-09 0  2.16 0.0400001 0  2.2 -7.22462e-09 0  2.2 0.04 0  2.24 -7.35598e-09 0  2.24 0.04 0  2.28 -7.48733e-09 0  2.28 0.0399999 0  2.32 -7.618690000000001e-09 0  2.32 0.04 0  2.36 -7.750049999999999e-09 0  2.36 0.04 0  2.4 -7.8814e-09 0  2.4 0.04 0  0.0401088 0.0801235 0  0 0.08 0  0.0802509 0.0802518 0  0.120434 0.0803392 0  0.160522 0.0801977 0  0.199995 0.0795328 0  0.239464 0.0802049 0  0.279544 0.08035689999999999 0  0.319711 0.0802867 0  0.359828 0.08018740000000001 0  0.399896 0.0801123 0  0.439933 0.0800646 0  0.479955 0.0800365 0  0.519968 0.08002049999999999 0  0.559976 0.0800116 0  0.599982 0.0800066 0  0.6399860000000001 0.0800039 0  0.679989 0.0800023 0  0.719991 0.0800014 0  0.759992 0.0800008 0  0.799994 0.0800004 0  0.839995 0.08000019999999999 0  0.879996 0.0799999 0  0.919997 0.07999970000000001 0  0.959999 0.0799996 0  1 0.0799995 0  1.04 0.0799995 0  1.08 0.0799996 0  1.12 0.07999970000000001 0  1.16 0.0799998 0  1.2 0.08 0  1.24 0.0800001 0  1.28 0.0800001 0  1.32 0.0800001 0  1.36 0.08 0  1.4 0.0799999 0  1.44 0.0799999 0  1.48 0.0799999 0  1.52 0.0799999 0  1.56 0.08 0  1.6 0.0800001 0  1.64 0.0800001 0  1.68 0.08 0  1.72 0.0799999 0  1.76 0.0799999 0  1.8 0.0799999 0  1.84 0.0799999 0  1.88 0.08 0  1.92 0.0800001 0  1.96 0.0800001 0  2 0.0800001 0  2.04 0.08 0  2.08 0.0799999 0  2.12 0.0799999 0  2.16 0.08 0  2.2 0.08 0  2.24 0.0799999 0  2.28 0.0799998 0  2.32 0.0799999 0  2.36 0.0799999 0  2.4 0.08 0  0.0401262 0.120184 0  0 0.12 0  0.0803378 0.120435 0  0.120779 0.12078 0  0.161485 0.120859 0  0.199996 0.117814 0  0.238503 0.120866 0  0.279195 0.120798 0  0.319616 0.120473 0  0.359799 0.120256 0  0.39988 0.120136 0  0.439921 0.120073 0  0.479944 0.120039 0  0.519958 0.120022 0  0.5599690000000001 0.120012 0  0.599976 0.120007 0  0.639981 0.120004 0  0.679985 0.120002 0  0.719987 0.120002 0  0.7599900000000001 0.120001 0  0.799991 0.12 0  0.839993 0.12 0  0.879995 0.12 0  0.919996 0.12 0  0.959998 0.119999 0  1 0.119999 0  1.04 0.119999 0  1.08 0.119999 0  1.12 0.12 0  1.16 0.12 0  1.2 0.12 0  1.24 0.12 0  1.28 0.12 0  1.32 0.12 0  1.36 0.12 0  1.4 0.12 0  1.44 0.12 0  1.48 0.12 0  1.52 0.12 0  1.56 0.12 0  1.6 0.12 0  1.64 0.12 0  1.68 0.12 0  1.72 0.12 0  1.76 0.12 0  1.8 0.12 0  1.84 0.12 0  1.88 0.12 0  1.92 0.12 0  1.96 0.12 0  2 0.12 0  2.04 0.12 0  2.08 0.12 0  2.12 0.12 0  2.16 0.12 0  2.2 0.12 0  2.24 0.12 0  2.28 0.12 0  2.32 0.12 0  2.36 0.12 0  2.4 0.12 0  0.0400582 0.160177 0  0 0.16 0  0.0801954 0.160525 0  0.120857 0.161488 0  0.164645 0.164645 0  0.2 0.15 0  0.235355 0.164645 0  0.279119 0.161498 0  0.319759 0.16055 0  0.359874 0.160228 0  0.399906 0.160104 0  0.439925 0.160051 0  0.479941 0.160027 0  0.519954 0.160014 0  0.559964 0.160008 0  0.5999719999999999 0.160005 0  0.639978 0.160003 0  0.679982 0.160002 0  0.719985 0.160001 0  0.759988 0.160001 0  0.79999 0.16 0  0.839992 0.16 0  0.8799940000000001 0.16 0  0.919996 0.159999 0  0.959998 0.159999 0  1 0.159999 0  1.04 0.159999 0  1.08 0.159999 0  1.12 0.16 0  1.16 0.16 0  1.2 0.16 0  1.24 0.16 0  1.28 0.16 0  1.32 0.16 0  1.36 0.16 0  1.4 0.16 0  1.44 0.16 0  1.48 0.16 0  1.52 0.16 0  1.56 0.16 0  1.6 0.16 0  1.64 0.16 0  1.68 0.16 0  1.72 0.16 0  1.76 0.16 0  1.8 0.16 0  1.84 0.16 0  1.88 0.16 0  1.92 0.16 0  1.96 0.16 0  2 0.16 0  2.04 0.16 0  2.08 0.16 0  2.12 0.16 0  2.16 0.16 0  2.2 0.16 0  2.24 0.16 0  2.28 0.16 0  2.32 0.16 0  2.36 0.16 0  2.4 0.16 0  0.0399111 0.2 0  0 0.2 0  0.0795281 0.2 0  0.117811 0.2 0  0.15 0.2 0  0.282167 0.2 0  0.25 0.2 0  0.320429 0.2 0  0.36003 0.200001 0  0.399944 0.200001 0  0.439934 0.200001 0  0.479942 0.200001 0  0.519953 0.200001 0  0.559963 0.200001 0  0.59997 0.200001 0  0.639976 0.200001 0  0.6799809999999999 0.200001 0  0.719984 0.200001 0  0.759987 0.200001 0  0.799989 0.2 0  0.839991 0.2 0  0.879993 0.2 0  0.919996 0.199999 0  0.959998 0.199999 0  1 0.199999 0  1.04 0.199999 0  1.08 0.199999 0  1.12 0.2 0  1.16 0.2 0  1.2 0.2 0  1.24 0.2 0  1.28 0.2 0  1.32 0.2 0  1.36 0.2 0  1.4 0.2 0  1.44 0.2 0  1.48 0.2 0  1.52 0.2 0  1.56 0.2 0  1.6 0.2 0  1.64 0.2 0  1.68 0.2 0  1.72 0.2 0  1.76 0.2 0  1.8 0.2 0  1.84 0.2 0  1.88 0.2 0  1.92 0.2 0  1.96 0.2 0  2 0.2 0  2.04 0.2 0  2.08 0.2 0  2.12 0.2 0  2.16 0.2 0  2.2 0.2 0  2.24 0.2 0  2.28 0.2 0  2.32 0.2 0  2.36 0.2 0  2.4 0.2 0  0.0400582 0.239823 0  0 0.24 0  0.0801953 0.239475 0  0.120857 0.238513 0  0.164645 0.235355 0  0.279119 0.238502 0  0.235355 0.235355 0  0.319759 0.239451 0  0.359873 0.239774 0  0.399905 0.239898 0  0.439925 0.239951 0  0.479941 0.239976 0  0.519954 0.239988 0  0.559964 0.239994 0  0.5999719999999999 0.239997 0  0.639977 0.239999 0  0.679982 0.24 0  0.719985 0.24 0  0.759987 0.24 0  0.79999 0.24 0  0.839992 0.24 0  0.8799940000000001 0.24 0  0.919996 0.239999 0  0.959998 0.239999 0  1 0.239999 0  1.04 0.239999 0  1.08 0.239999 0  1.12 0.24 0  1.16 0.24 0  1.2 0.24 0  1.24 0.24 0  1.28 0.24 0  1.32 0.24 0  1.36 0.24 0  1.4 0.24 0  1.44 0.24 0  1.48 0.24 0  1.52 0.24 0  1.56 0.24 0  1.6 0.24 0  1.64 0.24 0  1.68 0.24 0  1.72 0.24 0  1.76 0.24 0  1.8 0.24 0  1.84 0.24 0  1.88 0.24 0  1.92 0.24 0  1.96 0.24 0  2 0.24 0  2.04 0.24 0  2.08 0.24 0  2.12 0.24 0  2.16 0.24 0  2.2 0.24 0  2.24 0.24 0  2.28 0.24 0  2.32 0.24 0  2.36 0.24 0  2.4 0.24 0  0.0401261 0.279816 0  0 0.28 0  0.0803376 0.279565 0  0.120778 0.27922 0  0.161485 0.279141 0  0.2 0.25 0  0.199996 0.282186 0  0.238503 0.279135 0  0.279195 0.279202 0  0.319616 0.279528 0  0.359799 0.279745 0  0.39988 0.279865 0  0.43992 0.279929 0  0.479944 0.279962 0  0.519958 0.27998 0  0.559968 0.27999 0  0.599976 0.279995 0  0.639981 0.279998 0  0.679984 0.279999 0  0.719987 0.28 0  0.759989 0.28 0  0.799991 0.28 0  0.839993 0.28 0  0.879995 0.28 0  0.919997 0.279999 0  0.959998 0.279999 0  1 0.279999 0  1.04 0.279999 0  1.08 0.28 0  1.12 0.28 0  1.16 0.28 0  1.2 0.28 0  1.24 0.28 0  1.28 0.28 0  1.32 0.28 0  1.36 0.28 0  1.4 0.28 0  1.44 0.28 0  1.48 0.28 0  1.52 0.28 0  1.56 0.28 0  1.6 0.28 0  1.64 0.28 0  1.68 0.28 0  1.72 0.28 0  1.76 0.28 0  1.8 0.28 0  1.84 0.28 0  1.88 0.28 0  1.92 0.28 0  1.96 0.28 0  2 0.28 0  2.04 0.28 0  2.08 0.28 0  2.12 0.28 0  2.16 0.28 0  2.2 0.28 0  2.24 0.28 0  2.28 0.28 0  2.32 0.28 0  2.36 0.28 0  2.4 0.28 0  0.0401086 0.319877 0  0 0.32 0  0.08025060000000001 0.319748 0  0.120433 0.319661 0  0.160522 0.319802 0  0.199995 0.320467 0  0.239464 0.319795 0  0.279543 0.319643 0  0.31971 0.319714 0  0.359828 0.319813 0  0.399895 0.319889 0  0.439933 0.319937 0  0.479955 0.319965 0  0.519968 0.319981 0  0.559976 0.31999 0  0.599982 0.319995 0  0.6399860000000001 0.319998 0  0.679989 0.319999 0  0.719991 0.32 0  0.759992 0.32 0  0.799994 0.32 0  0.839995 0.32 0  0.879996 0.32 0  0.919998 0.32 0  0.959999 0.32 0  1 0.32 0  1.04 0.32 0  1.08 0.32 0  1.12 0.32 0  1.16 0.32 0  1.2 0.32 0  1.24 0.32 0  1.28 0.32 0  1.32 0.32 0  1.36 0.32 0  1.4 0.32 0  1.44 0.32 0  1.48 0.32 0  1.52 0.32 0  1.56 0.32 0  1.6 0.32 0  1.64 0.32 0  1.68 0.32 0  1.72 0.32 0  1.76 0.32 0  1.8 0.32 0  1.84 0.32 0  1.88 0.32 0  1.92 0.32 0  1.96 0.32 0  2 0.32 0  2.04 0.32 0  2.08 0.32 0  2.12 0.32 0  2.16 0.32 0  2.2 0.32 0  2.24 0.32 0  2.28 0.32 0  2.32 0.32 0  2.36 0.32 0  2.4 0.32 0  0.0400579 0.359942 0  0 0.36 0  0.0801229 0.359891 0  0.120183 0.359873 0  0.160175 0.35994 0  0.199997 0.360086 0  0.239816 0.359936 0  0.279804 0.359862 0  0.319855 0.359871 0  0.359906 0.359906 0  0.399941 0.35994 0  0.439962 0.359964 0  0.479975 0.359979 0  0.5199820000000001 0.359989 0  0.559987 0.359994 0  0.59999 0.359997 0  0.639993 0.359998 0  0.679994 0.359999 0  0.7199950000000001 0.36 0  0.759996 0.36 0  0.799997 0.36 0  0.839997 0.36 0  0.8799979999999999 0.36 0  0
[...]
<PointData  Scalars="f_10391-0"> 
<DataArray  type="Float64"  Name="f_10391-0"  format="ascii">3.5829825101326707e-02  3.6158289117985215e-02  3.6806211197691459e-02  3.6014639895506351e-02  3.5964669704595352e-02  3.7460452809308549e-02  3.3523803811451112e-02  3.4833913819423572e-02  2.9110064992433071e-02  2.9602187865333324e-02  2.4248123076523208e-02  2.4333478234094829e-02  1.9700657289467530e-02  1.9610191749999107e-02  1.5781128726003828e-02  1.5631318460648514e-02  1.2540058963534124e-02  1.2390612520196093e-02  9.9131614735433558e-03  9.7875093295457828e-03  7.8030682461151584e-03  7.7056140270345399e-03  6.1147414260718028e-03  6.0422178581043999e-03  4.7669954703920166e-03  4.7141370083014830e-03  3.6938371826807002e-03  3.6557168755977608e-03  2.8423842287115669e-03  2.8150517218180622e-03  2.1701743120194636e-03  2.1506110528279124e-03  1.6428227384735381e-03  1.6288182897932805e-03  1.2322352424201885e-03  1.2222221255008853e-03  9.1531158869131014e-04  9.0814967392890749e-04  6.7300751480656683e-04  6.6788430787650336e-04  4.8964558372019960e-04  4.8598208990221207e-04  3.5238426773277038e-04  3.4977027472527764e-04  2.5078853035260374e-04  2.4892468198719109e-04  1.7646397662887851e-04  1.7513846913070927e-04  1.2273710177362990e-04  1.2179901602280220e-04  8.4370813021120811e-05  8.3709093152710949e-05  5.7310958165943992e-05  5.6847293198960024e-05  3.8463711303608666e-05  3.8140892855325878e-05  2.5502114797321372e-05  2.5278978482070350e-05  1.6701647132667197e-05  1.6548642278677036e-05  1.0803123692614375e-05  1.0699121255757631e-05  6.9007554795545677e-06  6.8307246386719668e-06  4.3526374385161142e-06  4.3059514260015574e-06  2.7106199891541451e-06  2.6798240680984500e-06  1.6664677290379413e-06  1.6463771951950035e-06  1.0113210871347940e-06  9.9836432998632956e-07  6.0575415861914024e-07  5.9749693425124786e-07  3.5807139955839765e-07  3.5287323602182698e-07  2.0886163478417350e-07  2.0563013519367036e-07  1.2020222423428447e-07  1.1821901816423385e-07  6.8246293192466021e-08  6.7045049681817406e-08  3.8221253699415599e-08  3.7503321389142740e-08  2.1112284776929442e-08  2.0689009824060514e-08  1.1500419329152411e-08  1.1254290793347475e-08  6.1770638211231283e-09  6.0359356179596516e-09  3.2709984716340423e-09  3.1912181782073770e-09  1.7074425798246573e-09  1.6629868858789530e-09  8.7844537172442617e-10  8.5403152818936780e-10  4.4536780540151008e-10  4.3215661779859660e-10  2.2247844921559557e-10  2.1543522939437264e-10  1.0948346481269681e-10  1.0578475944132829e-10  5.3066853196910018e-11  5.1153901922303012e-11  2.5329760009492313e-11  2.4355549651844837e-11  1.1903834039767786e-11  1.1415383666779971e-11  5.5068722802587592e-12  5.2658124798623061e-12  2.5073756806613005e-12  2.3903051895501645e-12  1.1238652753615676e-12  1.0679402423857511e-12  4.9707067864564962e-13  4.7080778334675707e-13  2.2034189433437241e-13  2.0814325514595187e-13  1.0698376642927312e-13  1.0071541867666009e-13  7.9797612602936979e-14  7.2371196643957492e-14  3.7066239464879851e-02  3.5428813424639334e-02  4.0353437032158088e-02  3.8129580813454841e-02  3.0745410472572204e-02  2.4373771250357983e-02  1.9193228326276082e-02  1.5096713859094170e-02  1.1905996368387881e-02  9.4017981433687156e-03  7.4162437652980258e-03  5.8313418136181948e-03  4.5627021814882750e-03  3.5478345327948956e-03  2.7385393478756297e-03  2.0965192140691368e-03  1.5906942247843579e-03  1.1954120861384344e-03  8.8935304401355848e-04  6.5475135691518086e-04  4.7683392871535583e-04  3.4342190656384489e-04  2.4453983691146846e-04  1.7212400239383064e-04  1.1973493204145469e-04  8.2305040289145750e-05  5.5897953321761746e-05  3.7503146655203176e-05  2.4853528994406501e-05  1.6266915440423051e-05  1.0514030122952585e-05  6.7101325498432032e-06  4.2280705295105105e-06  2.6299892384154679e-06  1.6147951017135237e-06  9.7855007770272341e-07  5.8519497344030488e-07  3.4531766631799467e-07  2.0104133100701493e-07  1.1546399368414643e-07  6.5410484540091590e-08  3.6545263871213596e-08  2.0134428611896582e-08  1.0937333869647911e-08  5.8571305060171080e-09  3.0916799156963698e-09  1.6083205568293614e-09  8.2441976574553294e-10  4.1633983120824731e-10  2.0710650844120831e-10  1.0146216781364784e-10  4.8943286926520840e-11  2.3241804782423737e-11  1.0862716148900854e-11  4.9957608142936456e-12  2.2603941259391547e-12  1.0064080656716848e-12  4.4204539844269324e-13  1.9463488816984375e-13  9.3616690910885885e-14  6.6524886589785741e-14  3.3885451051734003e-02  3.2445037765307654e-02  3.7551279913856192e-02  3.6600702883825963e-02  3.0137684493364167e-02  2.3746717101143937e-02  1.8089232922561375e-02  1.4008179348450731e-02  1.1037896812068057e-02  8.7579875628091136e-03  6.9516217316695104e-03  5.4996469727685180e-03  4.3271365316593030e-03  3.3810194956031682e-03  2.6206541517107859e-03  2.0134277788452005e-03  1.5322824826461165e-03  1.1544742749268837e-03  8.6076615888113427e-04  6.3485801122739160e-04  4.6306053123555235e-04  3.3392556938514998e-04  2.3802560447016332e-04  1.6768131049180854e-04  1.1672302465848000e-04  8.0275107304109594e-05  5.4539378905690766e-05  3.6600276998599027e-05  2.4257919864443041e-05  1.5877054967477385e-05  1.0260918248501258e-05  6.5471979618903844e-06  4.1241134686741927e-06  2.5642720563148316e-06  1.5736484986216712e-06  9.5304259401803508e-07  5.6954436569118080e-07  3.3581644803536255e-07  1.9533612365160177e-07  1.1207657034908635e-07  6.3422383458240295e-08  3.5392207983698616e-08  1.9473766239939931e-08  1.0563479626465184e-08  5.6482500087369354e-09  2.9764811361749904e-09  1.5456248160165344e-09  7.9075665021638056e-10  3.9851253385009029e-10  1.9779710974612881e-10  9.6669761781547861e-11  4.6511799897928072e-11  2.2026269322583164e-11  1.0264128684065281e-11  4.7054632411713800e-12  2.1217693756185128e-12  9.4120827549033655e-13  4.1174768872286695e-13  1.8045850695092701e-13  8.6279373610060525e-14  6.0974818099786621e-14  2.8089984169466533e-02  2.7488413067243651e-02  2.9544822337522446e-02  2.9434189647057681e-02  2.7160999740702050e-02  2.2698342019234537e-02  1.5574544696528329e-02  1.2163566548333622e-02  9.7836732406863525e-03  7.8990557554018976e-03  6.3550909457455911e-03  5.0813770875844022e-03  4.0323463291522515e-03  3.1728808377174517e-03  2.4737564462205468e-03  1.9099057235787851e-03  1.4595165570788428e-03  1.1035020491077820e-03  8.2519399708988147e-04  6.1014458604689544e-04  4.4597045140295946e-04  3.2217105304033965e-04  2.2998620029094215e-04  1.6221434505108204e-04  1.1302961348812417e-04  7.7796544535012091e-05  5.2887726975027713e-05  3.5507748184780824e-05  2.3540786421948916e-05  1.5410113552599350e-05  9.9594221882041005e-06  6.3542177328660637e-06  4.0017048983785127e-06  2.4873525624797753e-06  1.5257803500463197e-06  9.2355065855160605e-07  5.5156105191837652e-07  3.2496688923585322e-07  1.8886174761857810e-07  1.0825627538318712e-07  6.1194041165293134e-08  3.4107726091432543e-08  1.8742270635983171e-08  1.0152034875532795e-08  5.4197383316369742e-09  2.8511999893622284e-09  1.4778408001646683e-09  7.5457256075966400e-10  3.7946040952771830e-10  1.8790496199568388e-10  9.1606338683577897e-11  4.3957393067231311e-11  2.0756538611500554e-11  9.6424130148240867e-12  4.4056721773187482e-12  1.9794324467031048e-12  8.7464517475625471e-13  3.8098955727074246e-13  1.6615232479946531e-13  7.8960526772499052e-14  5.5560450854313067e-14  2.2421023587473825e-02  2.2251767357463328e-02  2.2698932971179663e-02  2.2413825198004011e-02  2.1631735484709230e-02  9.7147114844299692e-03  1.0866544984569161e-02  8.3353980673426965e-03  6.9529304119660051e-03  5.7064257154570584e-03  4.6272971495144788e-03  3.7118201294723298e-03  2.9460254234385964e-03  2.3132474839200911e-03  1.7965830526931290e-03  1.3797451311259664e-03  1.0475530459086780e-03  7.8612725873633820e-04  5.8299701966863947e-04  4.2720369217902690e-04  3.0926995908033141e-04  2.2116988127782571e-04  1.5622570625238168e-04  1.0898933807724126e-04  7.5089600462457045e-05  5.1087183134775174e-05  3.4319150783423671e-05  2.2762328009644846e-05  1.4904449076866783e-05  9.6337517500543699e-06  6.1463221365841831e-06  3.8702048074309517e-06  2.4049606841476276e-06  1.4746609859989511e-06  8.9215313125285843e-07  5.3247648606800989e-07  3.1349022712634938e-07  1.8203574299094860e-07  1.0424199146474993e-07  5.8860503084430005e-08  3.2767236385240233e-08  1.7981538474423981e-08  9.7256526818942264e-09  5.1837741666410519e-09  2.7222994417967078e-09  1.4083531168262892e-09  7.1761627758611008e-10  3.6007479697926700e-10  1.7787811166327815e-10  8.6493933362263419e-11  4.1388519669177881e-11  1.9484805868924849e-11  9.0223119066189361e-12  4.1079407077019841e-12  1.8386974681174037e-12  8.0913085433561416e-13  3.5085961114391807e-13  1.5221345492964421e-13  7.1884322622283607e-14  5.0368391452858543e-14  1.7617683925172448e-02  1.7648699590163977e-02  1.7390027194529319e-02  1.6602743860743004e-02  1.4449586277075563e-02  8.2711547736814012e-03  9.0242000344884950e-03  7.2027626146372080e-03  6.1175581913956948e-03  5.1028150780890987e-03  4.1938874752589870e-03  3.4015440749809384e-03  2.7245105037064991e-03  2.1556123998276761e-03  1.6848080945236919e-03  1.3008328255333013e-03  9.9209058723865131e-04  7.4733822521214977e-04  5.5601531947458230e-04  4.0853250257080179e-04  2.9642720609717794e-04  2.1239031384732041e-04  1.5026381499503691e-04  1.0496722717499225e-04  7.2395213948571669e-05  4.9295438933719640e-05  3.3136778336741801e-05  2.1988280428131573e-05  1.4401906300895437e-05  9.3102811249095154e-06  5.9399662082483544e-06  3.7397730948156091e-06  2.3233028312720027e-06  1.4240404843440831e-06  8.6109073933727271e-07  5.1361435366097392e-07  3.0215936313321024e-07  1.7530408633192634e-07  1.0028796628485845e-07  5.6564941936440830e-08  3.1450359483063279e-08  1.7235287962742416e-08  9.3080293740473464e-09  4.9530335722257356e-09  2.5964701006002675e-09  1.3406453588325069e-09  6.8167664317292420e-10  3.4126138578673503e-10  1.6816855527902045e-10  8.1554840156361791e-11  3.8912880173770128e-11  1.8262460129172781e-11  8.4279656897836639e-12  3.8234294186493589e-12  1.7046415697014914e-12  7.4693967387340481e-13  3.2236481100334280e-13  1.3908781681679219e-13  6.5256302325344540e-14  4.5525942316631401e-14  1.3976678329019785e-02  1.4089456312006227e-02  1.3585136249149275e-02  1.2777170724996879e-02  1.1322129316479723e-02  1.0370987010519828e-02  9.3406811264650572e-03  8.1910632014770453e-03  7.2592866714073405e-03  6.3436342971460013e-03  5.4479517975519016e-03  4.5999226544204165e-03  3.8234902889899788e-03  3.1319284717594570e-03  2.5298986337859370e-03  2.0160691101005503e-03  1.5853397956852591e-03  1.2303259036133222e-03  9.4240159004639525e-04  7.1250504353410318e-04  5.3173446555972257e-04  3.9170871554067668e-04  2.8483845354737943e-04  2.0445731118287267e-04  1.4486857038347627e-04  1.0132362859892539e-04  6.9951293658078914e-05  4.7668188734103756e-05  3.2061521774127814e-05  2.1283448316960394e-05  1.3943694791351812e-05  9.0149503084178259e-06  5.7513091309491218e-06  3.6203692704072198e-06  2.2484507856592858e-06  1.3775793831788002e-06  8.3254530243820369e-07  4.9626004055809636e-07  2.9172261294116538e-07  1.6909717661763295e-07  9.6638707509471424e-08  5.4444523814789161e-08  3.0233063590928288e-08  1.6545047594407394e-08  8.9215669767085276e-09  4.7394385362679493e-09  2.4799697177192762e-09  1.2779563109096295e-09  6.4840608162536156e-10  3.2385099707854499e-10  1.5918782557161551e-10  7.6989815259246767e-11  3.6626888867360608e-11  1.7135068391596877e-11  7.8805584399952396e-12  3.5618215905153237e-12  1.5816152296008433e-12  6.8999335739473768e-13  2.9634224654237238e-13  1.2713954745204223e-13  5.9243419520565605e-14  4.1138461664226992e-14  1.1525337423714503e-02  1.1656450931924973e-02  1.1134147227595384e-02  1.0468800341719755e-02  9.5066077670701958e-03  8.3606730050116325e-03  7.4030096053126805e-03  6.5499164274539466e-03  5.7428297098962222e-03  4.9656674673768542e-03  4.2276405241192770e-03  3.5435108133100419e-03  2.9250793414504176e-03  2.3789946222269364e-03  1.9070516588507965e-03  1.5072063632404202e-03  1.1747072415301018e-03  9.0305348091063143e-04  6.8483904403142273e-04  5.1239742138871509e-04  3.7827023097342631e-04  2.7555722045362601e-04  1.9808697007461985e-04  1.4052267351960410e-04  9.8378373795027360e-05  6.7969587190351368e-05  4.6343914935857600e-05  3.1183196316033501e-05  2.0705431220336517e-05  1.3566388276782500e-05  8.7707444825589655e-06  5.5946435937519686e-06  3.5207844851498327e-06  2.1857517721206000e-06  1.3384931910544508e-06  8.0842798834122442e-07  4.8153599419311195e-07  2.8283121708858156e-07  1.6378819137492922e-07  9.3505358931509929e-08  5.2617177145087348e-08  2.9180350096352032e-08  1.5946166205323883e-08  8.5852263137271746e-09  4.5530177682695976e-09  2.3780271658321747e-09  1.2229726068764510e-09  6.1916446967194608e-10  3.0852146269193324e-10  1.5126850728857760e-10  7.2959423469888499e-11  3.4606780496170752e-11  1.6138207800878435e-11  7.3963994713198767e-12  3.3304565580427772e-12  1.4728589070082520e-12  6.3969647847502511e-13  2.7339288817918072e-13  1.1662731052985199e-13  5.3959239037136930e-14  3.7250165745599503e-14  1.0145144118817824e-02  1.0277641049400654e-02  9.7910066237424046e-03  9.2384822100123123e-03  8.5153546373792476e-03  7.6898551082100726e-03  6.8851574283278023e-03  6.1183861374882569e-03  5.3825509761503184e-03  4.6739928839784305e-03  3.9992456684174501e-03  3.3694569746224438e-03  2.7950945676389694e-03  2.2833762335220339e-03  1.8375045275551569e-03  1.4570841845855944e-03  1.1388451797686992e-03  8.7756680091017713e-04  6.6683012508025690e-04  4.9973987072010975e-04  3.6942504312147833e-04  2.6941021065339602e-04  1.9383733854337449e-04  1.3760281020929426e-04  9.6383446603190534e-05  6.6615837307885866e-05  4.5430956978779848e-05  3.0571836595899153e-05  2.0299074258502738e-05  1.3298412884661140e-05  8.5954892809887070e-06  5.4810257125258285e-06  3.4477995156563754e-06  2.1393169006870279e-06  1.3092452396867267e-06  7.9019711060669748e-07  4.7029496490521269e-07  2.7597756968664036e-07  1.5965780229326116e-07  9.1045809290347041e-08  5.1170529028443069e-08  2.8340183867305139e-08  1.5464529618896907e-08  8.3127764024352276e-09  4.4009870591692756e-09  2.2943666140021784e-09  1.1775863606495295e-09  5.9489766339837539e-10  2.9573775141486856e-10  1.4463523227991093e-10  6.9570239237068801e-11  3.2902168460806818e-11  1.5294517879914329e-11  6.9856028978501476e-12  3.1337518444934868e-12  1.3802571577060192e-12  5.9683694083381540e-13  2.5384806944004596e-13  1.0770397314275747e-13  4.9470529907098567e-14  3.3751839141326373e-14  9.7100196124138248e-03  9.8782658555927813e-03  9.3655204040573609e-03  8.8509228713162403e-03  8.1964776990356945e-03  7.4548259710491456e-03  6.7018913435237153e-03  5.9682796390445820e-03  5.2585460243947278e-03  4.5737009701170197e-03  3.9203890724633086e-03  3.3089731059315710e-03  2.7495951724594418e-03  2.2496217085155256e-03  1.8127230012113581e-03  1.4390211273920834e-03  1.1257557925025902e-03  8.6811299847711358e-04  6.6002540470049454e-04  4.9485635341561817e-04  3.6593043065032073e-04  2.6691488193986802e-04  1.9206299752266422e-04  1.3634614291859268e-04  9.5497498720385448e-05  6.5993944863231496e-05  4.4997026436875336e-05  3.0271124835434930e-05  2.0092265766491927e-05  1.3157371915889085e-05  8.5001720063298726e-06  5.4172347259581078e-06  3.4055479651199395e-06  2.1116361437228166e-06  1.2913167927011588e-06  7.7872261178497002e-07  4.6304116189998227e-07  2.7144995870378752e-07  1.5686854986275648e-07  8.9350387626509869e-08  5.0154035570773352e-08  2.7739228285763060e-08  1.5114284831744840e-08  8.1115994363467808e-09  4.2871321845812596e-09  2.2308943688228146e-09  1.1427391246182366e-09  5.7606123122055718e-10  2.8571544951685013e-10  1.3938757390180392e-10  6.6867024720531452e-11  3.1532562059977767e-11  1.4612196023169345e-11  6.6514604035660514e-12  2.9729530099056376e-12  1.3042452799693307e-12  5.6155755219070069e-13  2.3777622820467224e-13  1.0046908707920280e-13  4.5906593804125305e-14  2.9974245208911923e-14  </DataArray> 
</PointData> 
</Piece>
</UnstructuredGrid>
</VTKFile>