<?xml version="1.0"?>
<VTKFile type="UnstructuredGrid"  version="0.1"  >
<UnstructuredGrid>
<Piece  NumberOfPoints="670" NumberOfCells="1192">
<Points>
<DataArray  type="Float64"  NumberOfComponents="3"  format="ascii">0 0 0  0.04 -1.31357e-10 0  0.0400579 0.0400582 0  0 0.04 0  0.08 -2.62713e-10 0  0.080123 0.0401093 0  0.12 -3.9407e-10 0  0.120183 0.040127 0  0.16 -5.25427e-10 0  0.160176 0.0400597 0  0.2 -6.56784e-10 0  0.199997 0.0399142 0  0.24 -7.8814e-10 0  0.239816 0.0400642 0  0.28 -9.19497e-10 0  0.279804 0.0401377 0  0.32 -1.05085e-09 0  0.319855 0.0401297 0  0.36 -1.18221e-09 0  0.359906 0.0400945 0  0.4 -1.31357e-09 0  0.399941 0.0400609 0  0.44 -1.44492e-09 0  0.439962 0.0400367 0  0.48 -1.57628e-09 0  0.479975 0.0400214 0  0.52 -1.70764e-09 0  0.519983 0.0400122 0  0.5600000000000001 -1.83899e-09 0  0.559987 0.0400069 0  0.6 -1.97035e-09 0  0.59999 0.040004 0  0.64 -2.10171e-09 0  0.639993 0.0400023 0  0.68 -2.23306e-09 0  0.679994 0.0400013 0  0.72 -2.36442e-09 0  0.7199950000000001 0.0400008 0  0.76 -2.49578e-09 0  0.759996 0.0400005 0  0.8 -2.62713e-09 0  0.799997 0.0400002 0  0.84 -2.75849e-09 0  0.839997 0.0400001 0  0.88 -2.88985e-09 0  0.8799979999999999 0.04 0  0.92 -3.0212e-09 0  0.919999 0.0399999 0  0.96 -3.15256e-09 0  0.959999 0.0399998 0  1 -3.28392e-09 0  1 0.0399998 0  1.04 -3.41527e-09 0  1.04 0.0399998 0  1.08 -3.54663e-09 0  1.08 0.0399998 0  1.12 -3.67799e-09 0  1.12 0.0399998 0  1.16 -3.80934e-09 0  1.16 0.0399999 0  1.2 -3.9407e-09 0  1.2 0.04 0  1.24 -4.07206e-09 0  1.24 0.04 0  1.28 -4.20341e-09 0  1.28 0.0400001 0  1.32 -4.33477e-09 0  1.32 0.0400001 0  1.36 -4.46613e-09 0  1.36 0.04 0  1.4 -4.59748e-09 0  1.4 0.04 0  1.44 -4.72884e-09 0  1.44 0.04 0  1.48 -4.8602e-09 0  1.48 0.04 0  1.52 -4.99156e-09 0  1.52 0.04 0  1.56 -5.12291e-09 0  1.56 0.04 0  1.6 -5.25427e-09 0  1.6 0.0400001 0  1.64 -5.38563e-09 0  1.64 0.0400001 0  1.68 -5.51698e-09 0  1.68 0.04 0  1.72 -5.64834e-09 0  1.72 0.04 0  1.76 -5.7797e-09 0  1.76 0.04 0  1.8 -5.91105e-09 0  1.8 0.04 0  1.84 -6.04241e-09 0  1.84 0.04 0  1.88 -6.17377e-09 0  1.88 0.0400001 0  1.92 -6.30512e-09 0  1.92 0.0400001 0  1.96 -6.43648e-09 0  1.96 0.0400001 0  2 -6.56784e-09 0  2 0.0400001 0  2.04 -6.69919e-09 0  2.04 0.0400001 0  2.08 -6.83055e-09 0  2.08 0.04 0  2.12 -6.96191e-09 0  2.12 0.04 0  2.16 -7.09326e-09 0  2.16 0.0400001 0  2.2 -7.22462e-09 0  2.2 0.04 0  2.24 -7.35598e-09 0  2.24 0.04 0  2.28 -7.48733e-09 0  2.28 0.0399999 0  2.32 -7.618690000000001e-09 0  2.32 0.04 0  2.36 -7.750049999999999e-09 0  2.36 0.04 0  2.4 -7.8814e-09 0  2.4 0.04 0  0.0401088 0.0801235 0  0 0.08 0  0.0802509 0.0802518 0  0.120434 0.0803392 0  0.160522 0.0801977 0  0.199995 0.0795328 0  0.239464 0.0802049 0  0.279544 0.08035689999999999 0  0.319711 0.0802867 0  0.359828 0.08018740000000001 0  0.399896 0.0801123 0  0.439933 0.0800646 0  0.479955 0.0800365 0  0.519968 0.08002049999999999 0  0.559976 0.0800116 0  0.599982 0.0800066 0  0.6399860000000001 0.0800039 0  0.679989 0.0800023 0  0.719991 0.0800014 0  0.759992 0.0800008 0  0.799994 0.0800004 0  0.839995 0.08000019999999999 0  0.879996 0.0799999 0  0.919997 0.07999970000000001 0  0.959999 0.0799996 0  1 0.0799995 0  1.04 0.0799995 0  1.08 0.0799996 0  1.12 0.07999970000000001 0  1.16 0.0799998 0  1.2 0.08 0  1.24 0.0800001 0  1.28 0.0800001 0  1.32 0.0800001 0  1.36 0.08 0  1.4 0.0799999 0  1.44 0.0799999 0  1.48 0.0799999 0  1.52 0.0799999 0  1.56 0.08 0  1.6 0.0800001 0  1.64 0.0800001 0  1.68 0.08 0  1.72 0.0799999 0  1.76 0.0799999 0  1.8 0.0799999 0  1.84 0.0799999 0  1.88 0.08 0  1.92 0.0800001 0  1.96 0.0800001 0  2 0.0800001 0  2.04 0.08 0  2.08 0.0799999 0  2.12 0.0799999 0  2.16 0.08 0  2.2 0.08 0  2.24 0.0799999 0  2.28 0.0799998 0  2.32 0.0799999 0  2.36 0.0799999 0  2.4 0.08 0  0.0401262 0.120184 0  0 0.12 0  0.0803378 0.120435 0  0.120779 0.12078 0  0.161485 0.120859 0  0.199996 0.117814 0  0.238503 0.120866 0  0.279195 0.120798 0  0.319616 0.120473 0  0.359799 0.120256 0  0.39988 0.120136 0  0.439921 0.120073 0  0.479944 0.120039 0  0.519958 0.120022 0  0.5599690000000001 0.120012 0  0.599976 0.120007 0  0.639981 0.120004 0  0.679985 0.120002 0  0.719987 0.120002 0  0.7599900000000001 0.120001 0  0.799991 0.12 0  0.839993 0.12 0  0.879995 0.12 0  0.919996 0.12 0  0.959998 0.119999 0  1 0.119999 0  1.04 0.119999 0  1.08 0.119999 0  1.12 0.12 0  1.16 0.12 0  1.2 0.12 0  1.24 0.12 0  1.28 0.12 0  1.32 0.12 0  1.36 0.12 0  1.4 0.12 0  1.44 0.12 0  1.48 0.12 0  1.52 0.12 0  1.56 0.12 0  1.6 0.12 0  1.64 0.12 0  1.68 0.12 0  1.72 0.12 0  1.76 0.12 0  1.8 0.12 0  1.84 0.12 0  1.88 0.12 0  1.92 0.12 0  1.96 0.12 0  2 0.12 0  2.04 0.12 0  2.08 0.12 0  2.12 0.12 0  2.16 0.12 0  2.2 0.12 0  2.24 0.12 0  2.28 0.12 0  2.32 0.12 0  2.36 0.12 0  2.4 0.12 0  0.0400582 0.160177 0  0 0.16 0  0.0801954 0.160525 0  0.120857 0.161488 0  0.164645 0.164645 0  0.2 0.15 0  0.235355 0.164645 0  0.279119 0.161498 0  0.319759 0.16055 0  0.359874 0.160228 0  0.399906 0.160104 0  0.439925 0.160051 0  0.479941 0.160027 0  0.519954 0.160014 0  0.559964 0.160008 0  0.5999719999999999 0.160005 0  0.639978 0.160003 0  0.679982 0.160002 0  0.719985 0.160001 0  0.759988 0.160001 0  0.79999 0.16 0  0.839992 0.16 0  0.8799940000000001 0.16 0  0.919996 0.159999 0  0.959998 0.159999 0  1 0.159999 0  1.04 0.159999 0  1.08 0.159999 0  1.12 0.16 0  1.16 0.16 0  1.2 0.16 0  1.24 0.16 0  1.28 0.16 0  1.32 0.16 0  1.36 0.16 0  1.4 0.16 0  1.44 0.16 0  1.48 0.16 0  1.52 0.16 0  1.56 0.16 0  1.6 0.16 0  1.64 0.16 0  1.68 0.16 0  1.72 0.16 0  1.76 0.16 0  1.8 0.16 0  1.84 0.16 0  1.88 0.16 0  1.92 0.16 0  1.96 0.16 0  2 0.16 0  2.04 0.16 0  2.08 0.16 0  2.12 0.16 0  2.16 0.16 0  2.2 0.16 0  2.24 0.16 0  2.28 0.16 0  2.32 0.16 0  2.36 0.16 0  2.4 0.16 0  0.0399111 0.2 0  0 0.2 0  0.0795281 0.2 0  0.117811 0.2 0  0.15 0.2 0  0.282167 0.2 0  0.25 0.2 0  0.320429 0.2 0  0.36003 0.200001 0  0.399944 0.200001 0  0.439934 0.200001 0  0.479942 0.200001 0  0.519953 0.200001 0  0.559963 0.200001 0  0.59997 0.200001 0  0.639976 0.200001 0  0.6799809999999999 0.200001 0  0.719984 0.200001 0  0.759987 0.200001 0  0.799989 0.2 0  0.839991 0.2 0  0.879993 0.2 0  0.919996 0.199999 0  0.959998 0.199999 0  1 0.199999 0  1.04 0.199999 0  1.08 0.199999 0  1.12 0.2 0  1.16 0.2 0  1.2 0.2 0  1.24 0.2 0  1.28 0.2 0  1.32 0.2 0  1.36 0.2 0  1.4 0.2 0  1.44 0.2 0  1.48 0.2 0  1.52 0.2 0  1.56 0.2 0  1.6 0.2 0  1.64 0.2 0  1.68 0.2 0  1.72 0.2 0  1.76 0.2 0  1.8 0.2 0  1.84 0.2 0  1.88 0.2 0  1.92 0.2 0  1.96 0.2 0  2 0.2 0  2.04 0.2 0  2.08 0.2 0  2.12 0.2 0  2.16 0.2 0  2.2 0.2 0  2.24 0.2 0  2.28 0.2 0  2.32 0.2 0  2.36 0.2 0  2.4 0.2 0  0.0400582 0.239823 0  0 0.24 0  0.0801953 0.239475 0  0.120857 0.238513 0  0.164645 0.235355 0  0.279119 0.238502 0  0.235355 0.235355 0  0.319759 0.239451 0  0.359873 0.239774 0  0.399905 0.239898 0  0.439925 0.239951 0  0.479941 0.239976 0  0.519954 0.239988 0  0.559964 0.239994 0  0.5999719999999999 0.239997 0  0.639977 0.239999 0  0.679982 0.24 0  0.719985 0.24 0  0.759987 0.24 0  0.79999 0.24 0  0.839992 0.24 0  0.8799940000000001 0.24 0  0.919996 0.239999 0  0.959998 0.239999 0  1 0.239999 0  1.04 0.239999 0  1.08 0.239999 0  1.12 0.24 0  1.16 0.24 0  1.2 0.24 0  1.24 0.24 0  1.28 0.24 0  1.32 0.24 0  1.36 0.24 0  1.4 0.24 0  1.44 0.24 0  1.48 0.24 0  1.52 0.24 0  1.56 0.24 0  1.6 0.24 0  1.64 0.24 0  1.68 0.24 0  1.72 0.24 0  1.76 0.24 0  1.8 0.24 0  1.84 0.24 0  1.88 0.24 0  1.92 0.24 0  1.96 0.24 0  2 0.24 0  2.04 0.24 0  2.08 0.24 0  2.12 0.24 0  2.16 0.24 0  2.2 0.24 0  2.24 0.24 0  2.28 0.24 0  2.32 0.24 0  2.36 0.24 0  2.4 0.24 0  0.0401261 0.279816 0  0 0.28 0  0.0803376 0.279565 0  0.120778 0.27922 0  0.161485 0.279141 0  0.2 0.25 0  0.199996 0.282186 0  0.238503 0.279135 0  0.279195 0.279202 0  0.319616 0.279528 0  0.359799 0.279745 0  0.39988 0.279865 0  0.43992 0.279929 0  0.479944 0.279962 0  0.519958 0.27998 0  0.559968 0.27999 0  0.599976 0.279995 0  0.639981 0.279998 0  0.679984 0.279999 0  0.719987 0.28 0  0.759989 0.28 0  0.799991 0.28 0  0.839993 0.28 0  0.879995 0.28 0  0.919997 0.279999 0  0.959998 0.279999 0  1 0.279999 0  1.04 0.279999 0  1.08 0.28 0  1.12 0.28 0  1.16 0.28 0  1.2 0.28 0  1.24 0.28 0  1.28 0.28 0  1.32 0.28 0  1.36 0.28 0  1.4 0.28 0  1.44 0.28 0  1.48 0.28 0  1.52 0.28 0  1.56 0.28 0  1.6 0.28 0  1.64 0.28 0  1.68 0.28 0  1.72 0.28 0  1.76 0.28 0  1.8 0.28 0  1.84 0.28 0  1.88 0.28 0  1.92 0.28 0  1.96 0.28 0  2 0.28 0  2.04 0.28 0  2.08 0.28 0  2.12 0.28 0  2.16 0.28 0  2.2 0.28 0  2.24 0.28 0  2.28 0.28 0  2.32 0.28 0  2.36 0.28 0  2.4 0.28 0  0.0401086 0.319877 0  0 0.32 0  0.08025060000000001 0.319748 0  0.120433 0.319661 0  0.160522 0.319802 0  0.199995 0.320467 0  0.239464 0.319795 0  0.279543 0.319643 0  0.31971 0.319714 0  0.359828 0.319813 0  0.399895 0.319889 0  0.439933 0.319937 0  0.479955 0.319965 0  0.519968 0.319981 0  0.559976 0.31999 0  0.599982 0.319995 0  0.6399860000000001 0.319998 0  0.679989 0.319999 0  0.719991 0.32 0  0.759992 0.32 0  0.799994 0.32 0  0.839995 0.32 0  0.879996 0.32 0  0.919998 0.32 0  0.959999 0.32 0  1 0.32 0  1.04 0.32 0  1.08 0.32 0  1.12 0.32 0  1.16 0.32 0  1.2 0.32 0  1.24 0.32 0  1.28 0.32 0  1.32 0.32 0  1.36 0.32 0  1.4 0.32 0  1.44 0.32 0  1.48 0.32 0  1.52 0.32 0  1.56 0.32 0  1.6 0.32 0  1.64 0.32 0  1.68 0.32 0  1.72 0.32 0  1.76 0.32 0  1.8 0.32 0  1.84 0.32 0  1.88 0.32 0  1.92 0.32 0  1.96 0.32 0  2 0.32 0  2.04 0.32 0  2.08 0.32 0  2.12 0.32 0  2.16 0.32 0  2.2 0.32 0  2.24 0.32 0  2.28 0.32 0  2.32 0.32 0  2.36 0.32 0  2.4 0.32 0  0.0400579 0.359942 0  0 0.36 0  0.0801229 0.359891 0  0.120183 0.359873 0  0.160175 0.35994 0  0.199997 0.360086 0  0.239816 0.359936 0  0.279804 0.359862 0  0.319855 0.359871 0  0.359906 0.359906 0  0.399941 0.35994 0  0.439962 0.359964 0  0.479975 0.359979 0  0.5199820000000001 0.359989 0  0.559987 0.359994 0  0.59999 0.359997 0  0.639993 0.359998 0  0.679994 0.359999 0  0.7199950000000001 0.36 0  0.759996 0.36 0  0.799997 0.36 0  0.839997 0.36 0  0.8799979999999999 0.36 0  0
[...]
<PointData  Scalars="f_10391-1"> 
<DataArray  type="Float64"  Name="f_10391-1"  format="ascii">9.6308892405526092e-03  9.5816756330081125e-03  1.0048989522450808e-02  1.0146240735379718e-02  9.2966232980785865e-03  9.7271461518576852e-03  8.8225066666897441e-03  9.2010686321223611e-03  8.1916234275491214e-03  8.4928555190515870e-03  7.4629731627458709e-03  7.6838858621883655e-03  6.7130737326790693e-03  6.8806987113662656e-03  5.9855150369296489e-03  6.1227611881374561e-03  5.2847515640635631e-03  5.3992433106549885e-03  4.6095190246309850e-03  4.7029130020460851e-03  3.9646296955272685e-03  4.0383658543766002e-03  3.3594263841230723e-03  3.4159243707058773e-03  2.8036855003146870e-03  2.8459092462843798e-03  2.3048358437146436e-03  2.3357583455642563e-03  1.8668632196591763e-03  1.8891355239223845e-03  1.4903334550402279e-03  1.5061270997174885e-03  1.1729701058179342e-03  1.1839989200026141e-03  9.1042551289478618e-04  9.1802020339057432e-04  6.9704720859900603e-04  7.0219450402626686e-04  5.2653980039294053e-04  5.2996809503236134e-04  3.9248976548229332e-04  3.9472873553839750e-04  2.8874711758172794e-04  2.9017885681123707e-04  2.0967774933880291e-04  2.1056760708225406e-04  1.5030566319363878e-04  1.5084034692377902e-04  1.0637032191606512e-04  1.0667866420161802e-04  7.4321408306587348e-05  7.4488024249313734e-05  5.1271258299213145e-05  5.1353177425438769e-05  3.4923092623827388e-05  3.4956321617064979e-05  2.3487464413979150e-05  2.3494448414388119e-05  1.5597138169321995e-05  1.5591368961741290e-05  1.0226682582263359e-05  1.0215894144752894e-05  6.6205946203561462e-06  6.6089287609514642e-06  4.2317400744516125e-06  4.2211799321682292e-06  2.6704502984583300e-06  2.6617472264187399e-06  1.6636963485611182e-06  1.6569476658603119e-06  1.0232113319141185e-06  1.0182063195087041e-06  6.2120261048041053e-07  6.1761965090555948e-07  3.7226339552987512e-07  3.6977333165391618e-07  2.2018448976383397e-07  2.1849815449568633e-07  1.2853177201635845e-07  1.2741603053701615e-07  7.4043635235513008e-08  7.3321065293447665e-08  4.2090341942426778e-08  4.1631698416458289e-08  2.3607868393347281e-08  2.3322253406130123e-08  1.3063845964462126e-08  1.2889209063383581e-08  7.1315457810800920e-09  7.0266413540482538e-09  3.8401759496629518e-09  3.7782389463342152e-09  2.0395196629477104e-09  2.0035650056174038e-09  1.0682344046794469e-09  1.0477072056770090e-09  5.5171829641522164e-10  5.4019021309770772e-10  2.8094964004477275e-10  2.7458015493651633e-10  1.4104106028502693e-10  1.3757833073402582e-10  6.9792993666371067e-11  6.7940598816834143e-11  3.4038293126882594e-11  3.3063164282267511e-11  1.6358826359819088e-11  1.5853686248242799e-11  7.7465138824621180e-12  7.4890159179237037e-12  3.6141086917658600e-12  3.4849637063304995e-12  1.6618645599609794e-12  1.5981674419775795e-12  7.5532948420747531e-13  7.2446796141826241e-13  3.4516842194927145e-13  3.3040129391824808e-13  1.7352332970695985e-13  1.6561628602508826e-13  1.3201540699267511e-13  1.2160996224300285e-13  1.1477974079108475e-02  1.1597679135240308e-02  1.1087542133566126e-02  1.0417441063796504e-02  9.4434334299515511e-03  8.3392291285371203e-03  7.3702330822526061e-03  6.5319981683017317e-03  5.7450215002061329e-03  4.9854552284606043e-03  4.2608560419173380e-03  3.5859601035412004e-03  2.9729226916730368e-03  2.4289978158873295e-03  1.9566268544563442e-03  1.5544059816285627e-03  1.2181803609877643e-03  9.4197288952069984e-04  7.1881763560094282e-04  5.4139326810556502e-04  4.0249781814919805e-04  2.9540468906504670e-04  2.1404420972924253e-04  1.5312541900736556e-04  1.0815933248483942e-04  7.5435247849815282e-05  5.1950106791239272e-05  3.5326376619426557e-05  2.3719756621761817e-05  1.5725813026688619e-05  1.0294306772015146e-05  6.6534632904555652e-06  4.2456793456102430e-06  2.6746955343756884e-06  1.6634327383100791e-06  1.0212055991674037e-06  6.1882665366991235e-07  3.7011881858197393e-07  2.1847207549572495e-07  1.2726162533807701e-07  7.3148906046889764e-08  4.1484628427679764e-08  2.3210993253565615e-08  1.2811014578695653e-08  6.9744621900673990e-09  3.7447886600481453e-09  1.9828193494222116e-09  1.0352035330075196e-09  5.3284421446014187e-10  2.7036421645126723e-10  1.3521111797541775e-10  6.6638723443797335e-11  3.2361290239154646e-11  1.5482502843000381e-11  7.2963682639132608e-12  3.3868011448120491e-12  1.5490332598685686e-12  7.0023620199391652e-13  3.1837154007322420e-13  1.5880988041157542e-13  1.1548794566668456e-13  1.4000808568332654e-02  1.4117009936033589e-02  1.3566668503753175e-02  1.2699055889844286e-02  1.1160501172642237e-02  9.3047799259038284e-03  8.1090846598287428e-03  7.2062755962629867e-03  6.3278919682489580e-03  5.4580337820811908e-03  4.6275954234651596e-03  3.8624875844796304e-03  3.1774008357712768e-03  2.5780634079243130e-03  2.0640507821066047e-03  1.6310928157446964e-03  1.2724435283228708e-03  9.8004451408645224e-04  7.4531052273951639e-04  5.5966276945289273e-04  4.1499321872332288e-04  3.0386829137452542e-04  2.1972126716102638e-04  1.5689583357668055e-04  1.1063666248548299e-04  7.7044053224009120e-05  5.2982915368692915e-05  3.5981121913262410e-05  2.4129349504736302e-05  1.5978439227083576e-05  1.0447792128884447e-05  6.7452238520357701e-06  4.2995923849613796e-06  2.7057771202313683e-06  1.6809811012795730e-06  1.0308835012442374e-06  6.2402207453508882e-07  3.7282023775350705e-07  2.1982225638001135e-07  1.2790219613822011e-07  7.3430770367078103e-08  4.1593891720759516e-08  2.3242780858876669e-08  1.2811717079663196e-08  6.9652859281128341e-09  3.7344998914126644e-09  1.9743998138477352e-09  1.0291809984865251e-09  5.2886498358140681e-10  2.6787605473593930e-10  1.3371977942530108e-10  6.5775422715866321e-11  3.1876314714301325e-11  1.5217264926967230e-11  7.1548271020556921e-12  3.3129744411297452e-12  1.5113212026224612e-12  6.8126685529392511e-13  3.0874036406694429e-13  1.5333542869399978e-13  1.1106835604343191e-13  1.7742054920109239e-02  1.7789041559260275e-02  1.7412120601205332e-02  1.6493566572502932e-02  1.4291848200466259e-02  1.0064122073061900e-02  8.8947694436157781e-03  8.1859708112329826e-03  7.1735998997317103e-03  6.1214575611222592e-03  5.1272257368804308e-03  4.2309466640647339e-03  3.4456429037990027e-03  2.7715076456672452e-03  2.2024958043262281e-03  1.7294519120205970e-03  1.3418315727192383e-03  1.0286522437990332e-03  7.7910407244964456e-04  5.8298052785052401e-04  4.3094917157385958e-04  3.1469566034408072e-04  2.2700267061582404e-04  1.6174494334605084e-04  1.1383487251700729e-04  7.9131362210327932e-05  5.4330326485939903e-05  3.6840920131237689e-05  2.4671383981106722e-05  1.6315827918696086e-05  1.0655007241302471e-05  6.8707083652817840e-06  4.3744597318363501e-06  2.7497450734991917e-06  1.7063711688396268e-06  1.0452824230569761e-06  6.3202895763369484e-07  3.7717748322983606e-07  2.2213675708090932e-07  1.2909802566878100e-07  7.4028692313965363e-08  4.1880977740483593e-08  2.3373451788987740e-08  1.2866762491748652e-08  6.9856229104245902e-09  3.7400490401413676e-09  1.9743781596756832e-09  1.0275580838416863e-09  5.2716298821627005e-10  2.6655237646265959e-10  1.3281674762518838e-10  6.5205755855606583e-11  3.1536136668180001e-11  1.5022569273094700e-11  7.0472350808214542e-12  3.2552843841111775e-12  1.4811817933304892e-12  6.6581137562888603e-13  3.0076104734713587e-13  1.4878212043536024e-13  1.0748584892735487e-13  2.2704594212161887e-02  2.2535955481436953e-02  2.2761388416521335e-02  2.2041961832576038e-02  2.1208146325857102e-02  9.6978057800163348e-03  1.0548029998484075e-02  8.3283924273744366e-03  6.9618395983650303e-03  5.7318817405694203e-03  4.6644838191678816e-03  3.7556860293386268e-03  2.9925284252174055e-03  2.3594156532001417e-03  1.8403488927332238e-03  1.4197766510305513e-03  1.0831023484144866e-03  8.1689808086483299e-04  6.0902766901233050e-04  4.4876472079860466e-04  3.2678246958088439e-04  2.3513237921473585e-04  1.6716181141067358e-04  1.1741033766837079e-04  8.1467524667765110e-05  5.5840554973311007e-05  3.7806335429262948e-05  2.5281316232554890e-05  1.6696456559144495e-05  1.0889493267495985e-05  7.0132208285137007e-06  4.4598502729019040e-06  2.8001479727301717e-06  1.7356540189715953e-06  1.0620105164303571e-06  6.4141397555075564e-07  3.8234097708939392e-07  2.2491756727735876e-07  1.3056045311649970e-07  7.4777269573388701e-08  4.2252210061447735e-08  2.3550573166855786e-08  1.2947149771533299e-08  7.0196242652687957e-09  3.7528805554301667e-09  1.9781928310450163e-09  1.0279329730926997e-09  5.2648960403534756e-10  2.6575238721490866e-10  1.3217739561749847e-10  6.4767414592053069e-11  3.1260666762297897e-11  1.4859421580800262e-11  6.9548643389878796e-12  3.2048630710473606e-12  1.4544792612817629e-12  6.5197207974287509e-13  2.9356089659523032e-13  1.4466804900683527e-13  1.0426332256088045e-13  2.8759597265394354e-02  2.7915900348002270e-02  2.9859581348077469e-02  2.8492856851715001e-02  2.6032835448615767e-02  1.2018171779923302e-02  1.5436585908170512e-02  9.7400832858637806e-03  7.9023831856570737e-03  6.3813983488455383e-03  5.1198387128552634e-03  4.0768540813868335e-03  3.2193640670744876e-03  2.5194226405241818e-03  1.9528600753199591e-03  1.4985741163241423e-03  1.1379970519852700e-03  8.5491360538094818e-04  6.3518441264603215e-04  4.6662522328143509e-04  3.3888402742207607e-04  2.4326267650497148e-04  1.7257636605612502e-04  1.2098098698438254e-04  8.3798442470120032e-05  5.7346031356721455e-05  3.8767821474243213e-05  2.5888165303119473e-05  1.7074759834544150e-05  1.1122276752161587e-05  7.1545169586017404e-06  4.5443902540490861e-06  2.8499675777371650e-06  1.7645441213696486e-06  1.0784787628537933e-06  6.5062998975594843e-07  3.8739639044754597e-07  2.2763040743011555e-07  1.3198084552520422e-07  7.5500285517799958e-08  4.2608161252836868e-08  2.3718715441874458e-08  1.3022352670935797e-08  7.0506853443609918e-09  3.7640748736363846e-09  1.9811129615951127e-09  1.0278285636380344e-09  5.2556459278696522e-10  2.6482309283355711e-10  1.3147308392619216e-10  6.4297221882081099e-11  3.0969986224150090e-11  1.4689219862367514e-11  6.8593300153034387e-12  3.1530786534605288e-12  1.4272192516905383e-12  6.3792322422273509e-13  2.8629698856586158e-13  1.4054815463404599e-13  1.0104302002723403e-13  3.4197171361004620e-02  3.2527020380153746e-02  3.7681530749692771e-02  3.5897886239243601e-02  2.9180235487903113e-02  2.2263537744709207e-02  2.3389831450491134e-02  1.8003721355335310e-02  1.3968037408037211e-02  1.1032365684925778e-02  8.7764121685298367e-03  6.9849717496818656e-03  5.5415341069879895e-03  4.3729846126955496e-03  3.4276553566229698e-03  2.6657819177206537e-03  2.0554275259999475e-03  1.5701765441254643e-03  1.1877568903261571e-03  8.8928823732326923e-04  6.5877660185565312e-04  4.8270425490619579e-04  3.4975404408128498e-04  2.5054852634367965e-04  1.7741520345922941e-04  1.2416439132605981e-04  8.5870366874689200e-05  5.8679778119101404e-05  3.9616434441666149e-05  2.6421468968652506e-05  1.7405593601637120e-05  1.1324708332301703e-05  7.2765930039050073e-06  4.6168795175165689e-06  2.8923080817326617e-06  1.7888406067659739e-06  1.0921556311640461e-06  6.5816824442400691e-07  3.9145461996571831e-07  2.2975732346644436e-07  1.3306097642339233e-07  7.6028060079712461e-08  4.2853450541984041e-08  2.3824918110167120e-08  1.3063329563718381e-08  7.0630813318566349e-09  3.7652264392336011e-09  1.9787036659896669e-09  1.0249357102936854e-09  5.2320165785473734e-10  2.6316328247620940e-10  1.3040329707059730e-10  6.3647052028026235e-11  3.0592112054305686e-11  1.4477483599260749e-11  6.7443555435062449e-12  3.0923613807372895e-12  1.3959339119709796e-12  6.2209646842839842e-13  2.7825438503319132e-13  1.3605303274337730e-13  9.7532779607498009e-14  3.6098908004023170e-02  3.4699811952061212e-02  3.9595640262739457e-02  3.8250135166393799e-02  3.1048306210715367e-02  2.4441124009746344e-02  1.9234990718500704e-02  1.5126374993386729e-02  1.1937168787338427e-02  9.4383840857128355e-03  7.4582301983024046e-03  5.8768789408993301e-03  4.6096773677357416e-03  3.5942232528385328e-03  2.7826761565670475e-03  2.1371821549206840e-03  1.6271062530205038e-03  1.2271925932098378e-03  9.1645093226898182e-04  6.7736153367037473e-04  4.9532146132475385e-04  3.5825175183877762e-04  2.5622052114909836e-04  1.8116289815371819e-04  1.2661454782356301e-04  8.7454977323617875e-05  5.9691831580431470e-05  4.0254479723806833e-05  2.6818219476185804e-05  1.7648665513018288e-05  1.1471269688699907e-05  7.3634473881350713e-06  4.6673861991900733e-06  2.9210694061207971e-06  1.8048369999702859e-06  1.1008137297125451e-06  6.6270520579083036e-07  3.9373821395095384e-07  2.3084696735146522e-07  1.3354193422784360e-07  7.6213870522707157e-08  4.2905956770067397e-08  2.3823794257707894e-08  1.3045315897688532e-08  7.0434751381588432e-09  3.7492471656496364e-09  1.9672483968008700e-09  1.0173322212542959e-09  5.1842040070231644e-10  2.6027994416752462e-10  1.2872365955766787e-10  6.2697534598447129e-11  3.0069597832885722e-11  1.4196983582126466e-11  6.5972332619915307e-12  3.0168752840199208e-12  1.3579891354110378e-12  6.0332557687821727e-13  2.6891976565454323e-13  1.3091609790604767e-13  9.3462392640382590e-14  3.5440138039343490e-02  3.4916589952363353e-02  3.6479710972650008e-02  3.5125838580102542e-02  3.0256256398063810e-02  2.4614505255776683e-02  1.9752744224090998e-02  1.5712899154794947e-02  1.2447834425369179e-02  9.8365447600143267e-03  7.7528231993083240e-03  6.0893061123171270e-03  4.7607604706461117e-03  3.7008238810952903e-03  2.8574327127032302e-03  2.1893480058697910e-03  1.6632956943441149e-03  1.2521588411819886e-03  9.3355170160189867e-04  6.8897912082113385e-04  5.0314836192171572e-04  3.6347388203480382e-04  2.5966517043694701e-04  1.8340953768980779e-04  1.2805974418095511e-04  8.8372098524704129e-05  6.0264145054659125e-05  4.0605329578031602e-05  2.7029041337887491e-05  1.7772481953090357e-05  1.1542067232803552e-05  7.4026401088941393e-06  4.6882119157049724e-06  2.9315383580062382e-06  1.8096793976797384e-06  1.1027444264021027e-06  6.6322970395972975e-07  3.9365581482361561e-07  2.3055766418835918e-07  1.3322873420370403e-07  7.5947841237409960e-08  4.2704557089298844e-08  2.3681785972300088e-08  1.2950133048114356e-08  6.9821530538542523e-09  3.7110184986362966e-09  1.9440881225701990e-09  1.0036567018439206e-09  5.1053407998069740e-10  2.5583187929469864e-10  1.2626726502432757e-10  6.1368312314407937e-11  2.9364382287005505e-11  1.3829992771221669e-11  6.4098502469355797e-12  2.9229781641545824e-12  1.3117915575940087e-12  5.8095023994745588e-13  2.5805538645087005e-13  1.2502105875926959e-13  8.8386166601901311e-14  3.5047971134411382e-02  3.4857285157632034e-02  3.5206745513634612e-02  3.3569586253246603e-02  2.9508327617537099e-02  2.4520687816381354e-02  1.9858340869005019e-02  1.5873195143570624e-02  1.2601599570021878e-02  9.9627059230964418e-03  7.8488169025103804e-03  6.1594591146294925e-03  4.8108861858065849e-03  3.7360999615498013e-03  2.8820041826247088e-03  2.2062901093710730e-03  1.6748683340675739e-03  1.2599606244474214e-03  9.3874103537750343e-04  6.9237607863175863e-04  5.0532939319472526e-04  3.6483836945715425e-04  2.6049509590736410e-04  1.8389492160745963e-04  1.2832848329452466e-04  8.8507974101920462e-05  6.0322402973600502e-05  4.0620833522854891e-05  2.7023055766985348e-05  1.7757426509718022e-05  1.1524765050109774e-05  7.3864949780548493e-06  4.6746319164237793e-06  2.9208394322600120e-06  1.8016379872379738e-06  1.0969195054693553e-06  6.5913803848162991e-07  3.9085742732746662e-07  2.2868912572646275e-07  1.3200828046560899e-07  7.5166981614907338e-08  4.2214659608484599e-08  2.3380170757284482e-08  1.2767798217137975e-08  6.8738738747400005e-09  3.6478323043898559e-09  1.9078465460386684e-09  9.8322166317777686e-10  4.9920541294825596e-10  2.4965671890200569e-10  1.2295749735717587e-10  5.9623996268467532e-11  2.8460491491924911e-11  1.3369481132249836e-11  6.1792016052188298e-12  2.8094361091433459e-12  1.2568816205939047e-12  5.5488380979313054e-13  2.4583536501434950e-13  1.1866549286395187e-13  8.0731007697575842e-14  </DataArray> 
</PointData> 
</Piece>
</UnstructuredGrid>
</VTKFile>