<?xml version="1.0"?>
<VTKFile type="UnstructuredGrid"  version="0.1"  >
<UnstructuredGrid>
<Piece  NumberOfPoints="670" NumberOfCells="1192">
<Points>
<DataArray  type="Float64"  NumberOfComponents="3"  format="ascii">0 0 0  0.04 -1.31357e-10 0  0.0400579 0.0400582 0  0 0.04 0  0.08 -2.62713e-10 0  0.080123 0.0401093 0  0.12 -3.9407e-10 0  0.120183 0.040127 0  0.16 -5.25427e-10 0  0.160176 0.0400597 0  0.2 -6.56784e-10 0  0.199997 0.0399142 0  0.24 -7.8814e-10 0  0.239816 0.0400642 0  0.28 -9.19497e-10 0  0.279804 0.0401377 0  0.32 -1.05085e-09 0  0.319855 0.0401297 0  0.36 -1.18221e-09 0  0.359906 0.0400945 0  0.4 -1.31357e-09 0  0.399941 0.0400609 0  0.44 -1.44492e-09 0  0.439962 0.0400367 0  0.48 -1.57628e-09 0  0.479975 0.0400214 0  0.52 -1.70764e-09 0  0.519983 0.0400122 0  0.5600000000000001 -1.83899e-09 0  0.559987 0.0400069 0  0.6 -1.97035e-09 0  0.59999 0.040004 0  0.64 -2.10171e-09 0  0.639993 0.0400023 0  0.68 -2.23306e-09 0  0.679994 0.0400013 0  0.72 -2.36442e-09 0  0.7199950000000001 0.0400008 0  0.76 -2.49578e-09 0  0.759996 0.0400005 0  0.8 -2.62713e-09 0  0.799997 0.0400002 0  0.84 -2.75849e-09 0  0.839997 0.0400001 0  0.88 -2.88985e-09 0  0.8799979999999999 0.04 0  0.92 -3.0212e-09 0  0.919999 0.0399999 0  0.96 -3.15256e-09 0  0.959999 0.0399998 0  1 -3.28392e-09 0  1 0.0399998 0  1.04 -3.41527e-09 0  1.04 0.0399998 0  1.08 -3.54663e-09 0  1.08 0.0399998 0  1.12 -3.67799e-09 0  1.12 0.0399998 0  1.16 -3.80934e-09 0  1.16 0.0399999 0  1.2 -3.9407e-09 0  1.2 0.04 0  1.24 -4.07206e-09 0  1.24 0.04 0  1.28 -4.20341e-09 0  1.28 0.0400001 0  1.32 -4.33477e-09 0  1.32 0.0400001 0  1.36 -4.46613e-09 0  1.36 0.04 0  1.4 -4.59748e-09 0  1.4 0.04 0  1.44 -4.72884e-09 0  1.44 0.04 0  1.48 -4.8602e-09 0  1.48 0.04 0  1.52 -4.99156e-09 0  1.52 0.04 0  1.56 -5.12291e-09 0  1.56 0.04 0  1.6 -5.25427e-09 0  1.6 0.0400001 0  1.64 -5.38563e-09 0  1.64 0.0400001 0  1.68 -5.51698e-09 0  1.68 0.04 0  1.72 -5.64834e-09 0  1.72 0.04 0  1.76 -5.7797e-09 0  1.76 0.04 0  1.8 -5.91105e-09 0  1.8 0.04 0  1.84 -6.04241e-09 0  1.84 0.04 0  1.88 -6.17377e-09 0  1.88 0.0400001 0  1.92 -6.30512e-09 0  1.92 0.0400001 0  1.96 -6.43648e-09 0  1.96 0.0400001 0  2 -6.56784e-09 0  2 0.0400001 0  2.04 -6.69919e-09 0  2.04 0.0400001 0  2.08 -6.83055e-09 0  2.08 0.04 0  2.12 -6.96191e-09 0  2.12 0.04 0  2.16 -7.09326e-09 0  2.16 0.0400001 0  2.2 -7.22462e-09 0  2.2 0.04 0  2.24 -7.35598e-09 0  2.24 0.04 0  2.28 -7.48733e-09 0  2.28 0.0399999 0  2.32 -7.618690000000001e-09 0  2.32 0.04 0  2.36 -7.750049999999999e-09 0  2.36 0.04 0  2.4 -7.8814e-09 0  2.4 0.04 0  0.0401088 0.0801235 0  0 0.08 0  0.0802509 0.0802518 0  0.120434 0.0803392 0  0.160522 0.0801977 0  0.199995 0.0795328 0  0.239464 0.0802049 0  0.279544 0.08035689999999999 0  0.319711 0.0802867 0  0.359828 0.08018740000000001 0  0.399896 0.0801123 0  0.439933 0.0800646 0  0.479955 0.0800365 0  0.519968 0.08002049999999999 0  0.559976 0.0800116 0  0.599982 0.0800066 0  0.6399860000000001 0.0800039 0  0.679989 0.0800023 0  0.719991 0.0800014 0  0.759992 0.0800008 0  0.799994 0.0800004 0  0.839995 0.08000019999999999 0  0.879996 0.0799999 0  0.919997 0.07999970000000001 0  0.959999 0.0799996 0  1 0.0799995 0  1.04 0.0799995 0  1.08 0.0799996 0  1.12 0.07999970000000001 0  1.16 0.0799998 0  1.2 0.08 0  1.24 0.0800001 0  1.28 0.0800001 0  1.32 0.0800001 0  1.36 0.08 0  1.4 0.0799999 0  1.44 0.0799999 0  1.48 0.0799999 0  1.52 0.0799999 0  1.56 0.08 0  1.6 0.0800001 0  1.64 0.0800001 0  1.68 0.08 0  1.72 0.0799999 0  1.76 0.0799999 0  1.8 0.0799999 0  1.84 0.0799999 0  1.88 0.08 0  1.92 0.0800001 0  1.96 0.0800001 0  2 0.0800001 0  2.04 0.08 0  2.08 0.0799999 0  2.12 0.0799999 0  2.16 0.08 0  2.2 0.08 0  2.24 0.0799999 0  2.28 0.0799998 0  2.32 0.0799999 0  2.36 0.0799999 0  2.4 0.08 0  0.0401262 0.120184 0  0 0.12 0  0.0803378 0.120435 0  0.120779 0.12078 0  0.161485 0.120859 0  0.199996 0.117814 0  0.238503 0.120866 0  0.279195 0.120798 0  0.319616 0.120473 0  0.359799 0.120256 0  0.39988 0.120136 0  0.439921 0.120073 0  0.479944 0.120039 0  0.519958 0.120022 0  0.5599690000000001 0.120012 0  0.599976 0.120007 0  0.639981 0.120004 0  0.679985 0.120002 0  0.719987 0.120002 0  0.7599900000000001 0.120001 0  0.799991 0.12 0  0.839993 0.12 0  0.879995 0.12 0  0.919996 0.12 0  0.959998 0.119999 0  1 0.119999 0  1.04 0.119999 0  1.08 0.119999 0  1.12 0.12 0  1.16 0.12 0  1.2 0.12 0  1.24 0.12 0  1.28 0.12 0  1.32 0.12 0  1.36 0.12 0  1.4 0.12 0  1.44 0.12 0  1.48 0.12 0  1.52 0.12 0  1.56 0.12 0  1.6 0.12 0  1.64 0.12 0  1.68 0.12 0  1.72 0.12 0  1.76 0.12 0  1.8 0.12 0  1.84 0.12 0  1.88 0.12 0  1.92 0.12 0  1.96 0.12 0  2 0.12 0  2.04 0.12 0  2.08 0.12 0  2.12 0.12 0  2.16 0.12 0  2.2 0.12 0  2.24 0.12 0  2.28 0.12 0  2.32 0.12 0  2.36 0.12 0  2.4 0.12 0  0.0400582 0.160177 0  0 0.16 0  0.0801954 0.160525 0  0.120857 0.161488 0  0.164645 0.164645 0  0.2 0.15 0  0.235355 0.164645 0  0.279119 0.161498 0  0.319759 0.16055 0  0.359874 0.160228 0  0.399906 0.160104 0  0.439925 0.160051 0  0.479941 0.160027 0  0.519954 0.160014 0  0.559964 0.160008 0  0.5999719999999999 0.160005 0  0.639978 0.160003 0  0.679982 0.160002 0  0.719985 0.160001 0  0.759988 0.160001 0  0.79999 0.16 0  0.839992 0.16 0  0.8799940000000001 0.16 0  0.919996 0.159999 0  0.959998 0.159999 0  1 0.159999 0  1.04 0.159999 0  1.08 0.159999 0  1.12 0.16 0  1.16 0.16 0  1.2 0.16 0  1.24 0.16 0  1.28 0.16 0  1.32 0.16 0  1.36 0.16 0  1.4 0.16 0  1.44 0.16 0  1.48 0.16 0  1.52 0.16 0  1.56 0.16 0  1.6 0.16 0  1.64 0.16 0  1.68 0.16 0  1.72 0.16 0  1.76 0.16 0  1.8 0.16 0  1.84 0.16 0  1.88 0.16 0  1.92 0.16 0  1.96 0.16 0  2 0.16 0  2.04 0.16 0  2.08 0.16 0  2.12 0.16 0  2.16 0.16 0  2.2 0.16 0  2.24 0.16 0  2.28 0.16 0  2.32 0.16 0  2.36 0.16 0  2.4 0.16 0  0.0399111 0.2 0  0 0.2 0  0.0795281 0.2 0  0.117811 0.2 0  0.15 0.2 0  0.282167 0.2 0  0.25 0.2 0  0.320429 0.2 0  0.36003 0.200001 0  0.399944 0.200001 0  0.439934 0.200001 0  0.479942 0.200001 0  0.519953 0.200001 0  0.559963 0.200001 0  0.59997 0.200001 0  0.639976 0.200001 0  0.6799809999999999 0.200001 0  0.719984 0.200001 0  0.759987 0.200001 0  0.799989 0.2 0  0.839991 0.2 0  0.879993 0.2 0  0.919996 0.199999 0  0.959998 0.199999 0  1 0.199999 0  1.04 0.199999 0  1.08 0.199999 0  1.12 0.2 0  1.16 0.2 0  1.2 0.2 0  1.24 0.2 0  1.28 0.2 0  1.32 0.2 0  1.36 0.2 0  1.4 0.2 0  1.44 0.2 0  1.48 0.2 0  1.52 0.2 0  1.56 0.2 0  1.6 0.2 0  1.64 0.2 0  1.68 0.2 0  1.72 0.2 0  1.76 0.2 0  1.8 0.2 0  1.84 0.2 0  1.88 0.2 0  1.92 0.2 0  1.96 0.2 0  2 0.2 0  2.04 0.2 0  2.08 0.2 0  2.12 0.2 0  2.16 0.2 0  2.2 0.2 0  2.24 0.2 0  2.28 0.2 0  2.32 0.2 0  2.36 0.2 0  2.4 0.2 0  0.0400582 0.239823 0  0 0.24 0  0.0801953 0.239475 0  0.120857 0.238513 0  0.164645 0.235355 0  0.279119 0.238502 0  0.235355 0.235355 0  0.319759 0.239451 0  0.359873 0.239774 0  0.399905 0.239898 0  0.439925 0.239951 0  0.479941 0.239976 0  0.519954 0.239988 0  0.559964 0.239994 0  0.5999719999999999 0.239997 0  0.639977 0.239999 0  0.679982 0.24 0  0.719985 0.24 0  0.759987 0.24 0  0.79999 0.24 0  0.839992 0.24 0  0.8799940000000001 0.24 0  0.919996 0.239999 0  0.959998 0.239999 0  1 0.239999 0  1.04 0.239999 0  1.08 0.239999 0  1.12 0.24 0  1.16 0.24 0  1.2 0.24 0  1.24 0.24 0  1.28 0.24 0  1.32 0.24 0  1.36 0.24 0  1.4 0.24 0  1.44 0.24 0  1.48 0.24 0  1.52 0.24 0  1.56 0.24 0  1.6 0.24 0  1.64 0.24 0  1.68 0.24 0  1.72 0.24 0  1.76 0.24 0  1.8 0.24 0  1.84 0.24 0  1.88 0.24 0  1.92 0.24 0  1.96 0.24 0  2 0.24 0  2.04 0.24 0  2.08 0.24 0  2.12 0.24 0  2.16 0.24 0  2.2 0.24 0  2.24 0.24 0  2.28 0.24 0  2.32 0.24 0  2.36 0.24 0  2.4 0.24 0  0.0401261 0.279816 0  0 0.28 0  0.0803376 0.279565 0  0.120778 0.27922 0  0.161485 0.279141 0  0.2 0.25 0  0.199996 0.282186 0  0.238503 0.279135 0  0.279195 0.279202 0  0.319616 0.279528 0  0.359799 0.279745 0  0.39988 0.279865 0  0.43992 0.279929 0  0.479944 0.279962 0  0.519958 0.27998 0  0.559968 0.27999 0  0.599976 0.279995 0  0.639981 0.279998 0  0.679984 0.279999 0  0.719987 0.28 0  0.759989 0.28 0  0.799991 0.28 0  0.839993 0.28 0  0.879995 0.28 0  0.919997 0.279999 0  0.959998 0.279999 0  1 0.279999 0  1.04 0.279999 0  1.08 0.28 0  1.12 0.28 0  1.16 0.28 0  1.2 0.28 0  1.24 0.28 0  1.28 0.28 0  1.32 0.28 0  1.36 0.28 0  1.4 0.28 0  1.44 0.28 0  1.48 0.28 0  1.52 0.28 0  1.56 0.28 0  1.6 0.28 0  1.64 0.28 0  1.68 0.28 0  1.72 0.28 0  1.76 0.28 0  1.8 0.28 0  1.84 0.28 0  1.88 0.28 0  1.92 0.28 0  1.96 0.28 0  2 0.28 0  2.04 0.28 0  2.08 0.28 0  2.12 0.28 0  2.16 0.28 0  2.2 0.28 0  2.24 0.28 0  2.28 0.28 0  2.32 0.28 0  2.36 0.28 0  2.4 0.28 0  0.0401086 0.319877 0  0 0.32 0  0.08025060000000001 0.319748 0  0.120433 0.319661 0  0.160522 0.319802 0  0.199995 0.320467 0  0.239464 0.319795 0  0.279543 0.319643 0  0.31971 0.319714 0  0.359828 0.319813 0  0.399895 0.319889 0  0.439933 0.319937 0  0.479955 0.319965 0  0.519968 0.319981 0  0.559976 0.31999 0  0.599982 0.319995 0  0.6399860000000001 0.319998 0  0.679989 0.319999 0  0.719991 0.32 0  0.759992 0.32 0  0.799994 0.32 0  0.839995 0.32 0  0.879996 0.32 0  0.919998 0.32 0  0.959999 0.32 0  1 0.32 0  1.04 0.32 0  1.08 0.32 0  1.12 0.32 0  1.16 0.32 0  1.2 0.32 0  1.24 0.32 0  1.28 0.32 0  1.32 0.32 0  1.36 0.32 0  1.4 0.32 0  1.44 0.32 0  1.48 0.32 0  1.52 0.32 0  1.56 0.32 0  1.6 0.32 0  1.64 0.32 0  1.68 0.32 0  1.72 0.32 0  1.76 0.32 0  1.8 0.32 0  1.84 0.32 0  1.88 0.32 0  1.92 0.32 0  1.96 0.32 0  2 0.32 0  2.04 0.32 0  2.08 0.32 0  2.12 0.32 0  2.16 0.32 0  2.2 0.32 0  2.24 0.32 0  2.28 0.32 0  2.32 0.32 0  2.36 0.32 0  2.4 0.32 0  0.0400579 0.359942 0  0 0.36 0  0.0801229 0.359891 0  0.120183 0.359873 0  0.160175 0.35994 0  0.199997 0.360086 0  0.239816 0.359936 0  0.279804 0.359862 0  0.319855 0.359871 0  0.359906 0.359906 0  0.399941 0.35994 0  0.439962 0.359964 0  0.479975 0.359979 0  0.5199820000000001 0.359989 0  0.559987 0.359994 0  0.59999 0.359997 0  0.639993 0.359998 0  0.679994 0.359999 0  0.7199950000000001 0.36 0  0.759996 0.36 0  0.799997 0.36 0  0.839997 0.36 0  0.8799979999999999 0.36 0  0
[...]
<PointData  Scalars="f_10391-1"> 
<DataArray  type="Float64"  Name="f_10391-1"  format="ascii">-4.5132486166703760e-07  -7.8625347258682833e-07  -2.3953760034828891e-06  -3.3423405857357166e-06  -5.6141258758047682e-07  -6.8225734215207732e-07  -1.1512425229069069e-07  7.2689013003548069e-07  7.8769827470546804e-08  8.4638758102802950e-07  5.8463525115491788e-08  3.8277729686166330e-07  1.3390957224007227e-08  8.3419356181875386e-08  1.4951630538410762e-09  1.1562317193800642e-08  3.4949217858293331e-11  9.8447116723547952e-10  -1.3734196406783543e-11  1.9692654611263194e-11  -1.5749699636353273e-12  -5.9389188926778995e-12  2.2867889524508898e-14  -4.8869728542889330e-13  1.1821033700416847e-14  1.5150284819552501e-14  -9.9604240945649341e-18  1.8619925164867335e-15  -5.5658920714960611e-17  -1.0657072488516820e-16  1.5357154554184906e-18  4.1355074081330418e-19  1.1310586123145243e-19  6.0600379057186081e-19  -1.1952049972067269e-20  -5.3099498860336056e-20  6.3981508239373241e-22  6.5531083056183968e-22  -8.4329716383606315e-24  1.7644576199523759e-22  -2.4385638539405418e-24  -1.6187372137826667e-23  2.6849010058725836e-25  8.6746822251876207e-25  -1.5211306722039631e-26  -2.8592905325300828e-26  5.3626813006207308e-28  -8.3970723111705300e-28  -5.4835349272686596e-30  2.4058247514458088e-28  -1.5646190977280121e-30  -2.2324278256037654e-29  2.3782286940070318e-31  1.3630117959835726e-30  -2.1741672985714788e-32  -6.2264805183558517e-32  1.3839167155069809e-33  2.2184345562199887e-33  -6.1140101129951364e-35  -4.2739920759723496e-35  1.6758948563223974e-36  -3.6461399380670034e-36  -8.6795704765814748e-39  6.3125034757763603e-37  -2.4183840346585072e-39  -5.5747914354596633e-38  2.9876051323996241e-40  3.4145333976284268e-39  -3.2129581466573715e-41  -1.5355299253032744e-40  2.8133323581947076e-42  5.5167704628452696e-42  -1.8811397103065918e-43  -2.0326768581543215e-43  1.0064593318201556e-44  6.0151993266266499e-45  -5.5014529466005604e-46  6.7601248422419458e-46  4.2962764186733257e-47  -1.5985668913484283e-46  -3.9830910038940847e-48  1.7158207605539676e-47  3.2085632744220384e-49  -1.2222772112345759e-48  -2.1074307570244768e-50  6.4760258010660684e-50  1.2640839931478041e-51  -3.1184293224995217e-51  -8.9464149154692192e-53  1.9448009438470573e-52  8.0269691372606896e-54  -1.3962186947239176e-53  -7.1818624557015312e-55  5.7392536225706952e-55  5.3259026921815513e-56  3.9389960355460371e-56  -2.9527842960067233e-57  -1.0312805503864016e-56  9.7373688931865089e-59  1.1264034336408877e-57  1.3838855445112582e-60  -8.2799285970024339e-59  -4.7101913710168109e-61  4.2125923155178868e-60  3.7614582764668460e-62  -1.1130202334624158e-61  -1.7212642680306477e-63  -4.2302925803484262e-63  2.2417835130701764e-65  7.7437133516354634e-64  4.1061413193159732e-66  -5.7358788836979786e-65  -4.7064956866011986e-67  2.7645788908013829e-66  3.1261753724163231e-68  -7.5189542620592347e-68  -1.4928892362940789e-69  -1.1747598285767094e-69  5.4719254345483645e-71  2.8984192823975192e-70  -1.8272488199284684e-72  -4.1700485374359806e-71  -4.8657194368489596e-06  -1.2725847529108603e-05  5.3160176755770804e-06  1.0674274946654165e-05  7.8116002287544254e-06  2.9727287888450269e-06  6.3739189846360143e-07  1.0578267433235006e-07  1.3655871770780424e-08  1.1151762567802379e-09  2.0495592164989405e-11  -5.2187367011517894e-12  -3.3293481030726958e-13  1.2798872855835754e-14  9.2531609637117074e-16  -5.5226399711122915e-17  2.3927769395671332e-19  1.2937119204789681e-19  -1.0341167306851848e-20  4.7785366765763560e-22  -1.1069436289079659e-23  -6.0592785324102907e-25  1.1717318549675277e-25  -1.1518080802572511e-26  7.9727712818279402e-28  -3.6096181640428254e-29  8.9386973958423211e-31  -2.0154377560924671e-32  3.0432719882565341e-33  -2.5398637086181300e-34  -3.6542263605571248e-37  2.0188853685714991e-36  -2.4195880171557171e-37  1.9228413276358614e-38  -1.2942958913642159e-39  8.0121772815804184e-41  -4.5781626571977050e-42  2.4818895447509249e-43  -1.4276243478063920e-44  9.0141979428757618e-46  -5.0513973781953975e-47  1.5715061460615245e-48  6.5978782527307356e-50  -1.4206428284815032e-50  1.3637508131657767e-51  -1.1870324202297624e-52  1.0984598010098626e-53  -9.6899966273685436e-55  6.9385096572121975e-56  -3.3371261237590654e-57  2.5640619984147588e-59  1.4356429606274541e-59  -1.7790174587002046e-60  1.3515020136938829e-61  -7.4391224891695807e-63  2.8596396095730223e-64  -4.9213727239030661e-66  -2.8331339334424383e-67  3.1081953832322127e-68  -1.4945033196367390e-69  5.3003107481463164e-71  2.0754844232506746e-05  -1.3135279216313856e-05  6.3819606589373261e-05  7.7108259918912586e-05  4.8426892573662469e-05  1.4588650979224973e-05  3.0545881527908443e-06  6.2016860906079162e-07  1.0610170281744270e-07  1.2380706972106758e-08  7.7202228281541180e-10  1.6465431120243269e-12  -2.4502792848114400e-12  -1.1963367011443013e-14  7.4081337343687354e-15  -3.5687215006839584e-16  -2.0747696503348655e-17  2.4083934521161807e-18  -3.2534280737184918e-20  -5.1321950688665315e-21  3.5502096363739844e-22  -1.3540196592023012e-23  2.6613693713169404e-25  3.2546307182781984e-26  -4.1485700690480634e-27  1.3889216805923660e-28  9.4618500611304723e-30  -1.2022596068277576e-30  4.9494156879113735e-32  1.9697749931916682e-34  -1.9320661515279861e-34  2.5211920161395413e-35  -2.7762155605084933e-36  2.4713767671506252e-37  -1.7425591657696845e-38  1.0424666131697395e-39  -6.0516115678524628e-41  3.7484346255587850e-42  -2.3521064329882763e-43  1.3802221899617000e-44  -7.8442840844925750e-46  4.8945644913021413e-47  -3.4229207050699369e-48  2.3775166073460719e-49  -1.5226427224451201e-50  9.2176800143540629e-52  -5.4501558305965533e-53  2.8148448162388577e-54  -6.9272760870559803e-56  -8.0638910151941343e-57  1.4492905531062002e-57  -1.3338064853215801e-58  8.3786455021870055e-60  -3.3759733044112758e-61  2.4192075829971712e-63  9.4032744879017562e-64  -9.5073224000090880e-65  5.7131536292121495e-66  -2.3423603945354919e-67  5.5397518569819591e-69  7.2373182150625049e-71  2.0726364820570142e-04  9.3944179067269835e-05  3.6359693732575005e-04  3.8925198564778021e-04  2.5225600411453230e-04  3.7212181604137885e-05  9.4775434101025054e-06  3.0629049264135336e-06  6.4088565108167496e-07  8.6317449171034857e-08  6.8297334187533599e-09  2.0160260529774235e-10  -9.8490095037177136e-12  -3.7615139688306316e-13  5.3798361209996856e-14  4.4144939294616209e-16  -1.9189230197997801e-16  7.2323169564666591e-18  9.7515826021866950e-20  -3.9060799527698378e-20  2.8702342395865395e-21  -4.3127824811302797e-23  -8.0266806983952160e-24  6.3806449108835936e-25  -1.4734204844436177e-26  -6.8738050277037635e-28  6.6960524521936827e-29  -2.4123439967511360e-30  -4.8643091082905418e-32  2.3216069562083244e-32  -2.9670633578081980e-33  2.4113323161002590e-34  -1.4653199516824869e-35  8.0792925504280285e-37  -4.6515592716728561e-38  2.2562659324264983e-39  -2.8017772805099360e-41  -8.0803313705302518e-42  9.6018552933315868e-43  -6.8409743293055705e-44  4.2078639869438838e-45  -2.7577426611111614e-46  1.8584306202500103e-47  -1.0736853576430486e-48  4.5686761247909054e-50  -1.0787014634715651e-51  -3.5121771759631432e-53  9.2200786739191373e-54  -1.2462990324272580e-54  1.3382704408051150e-55  -1.1270977994228152e-56  7.1992533973542172e-58  -3.1811236488668619e-59  5.6491030738401345e-61  4.9853246708812440e-62  -5.8214208013308961e-63  3.2381982776047905e-64  -9.1818113806541227e-66  -1.4815768258625593e-67  3.3806292548345105e-68  -3.1678924030702982e-69  8.9355620461639511e-04  5.5531253497055296e-04  1.3990809161158948e-03  1.4138918143202994e-03  1.1995401583270336e-03  1.4644213830383187e-05  3.7295825576418516e-05  2.9897787499662381e-06  3.8741552346077160e-07  2.9464096956552305e-08  6.5271360111878703e-10  -8.3571242217502148e-11  -4.7691508140649173e-12  2.3810616856921377e-13  1.2983359204176132e-14  -8.7878422681627964e-16  1.1601774104092054e-17  2.0903088173915674e-18  -2.0756172089531086e-19  8.2442019714576483e-21  1.8853593652505970e-22  -4.1253563164392912e-23  2.1556577643124614e-24  -6.5213173658289439e-26  2.7943851210160488e-27  -1.8603878686228421e-28  1.0548269228797477e-29  -6.2276936213371720e-31  2.7544564067542681e-32  6.8873645423037874e-34  -2.3962538811078698e-34  2.8556867955630359e-35  -3.2243332175781567e-36  3.3443544887087129e-37  -2.8400390769851158e-38  2.0582961439655069e-39  -1.4819394745449906e-40  1.1602701303825179e-41  -9.0697174193709949e-43  6.4262829238529677e-44  -4.1666639990948895e-45  2.7071134340433594e-46  -1.8720490108277860e-47  1.3053080992709719e-48  -8.4419908707191579e-50  4.9834354258660629e-51  -2.8670582394993740e-52  1.7412454151237509e-53  -1.0737501530868721e-54  5.6228775922043146e-56  -1.6617886348652787e-57  -7.1431304225438003e-59  1.5278414810205661e-59  -1.3505965116272735e-60  8.4121360022623591e-62  -4.0453249067453030e-63  1.5699174899279577e-64  -5.6109460926388357e-66  2.6823370012272909e-67  -3.6438666495183475e-68  2.6460304090413760e-03  1.6153135915681026e-03  4.2637161833337777e-03  3.8350975868212804e-03  2.3375444496838288e-03  4.8667262074762208e-05  2.5283670951732086e-04  7.8709300530127156e-06  8.5373805881405464e-07  4.0207129158827898e-08  -3.4145229796655406e-09  -6.6368338984552984e-10  -3.0897451847090940e-11  8.4180956496224140e-13  5.4181049694943344e-14  -5.2353888438789808e-15  1.3679036799771658e-17  1.8574217754987052e-17  -9.9151458258512530e-19  -1.6987943269813452e-21  1.3593164787143628e-21  -7.0439757527412449e-23  1.4328267957368708e-23  -1.4319694644264280e-24  5.6250447804358155e-26  5.6019629910824278e-28  -2.3365413233325943e-28  2.4470861772132114e-29  -2.0007260257985418e-30  1.2845543228205882e-31  -6.8821923927209727e-33  3.5173581215395499e-34  -1.7181656012580618e-35  6.8736654073698235e-37  -2.3272690709285844e-38  1.2406764608146906e-39  -1.0213429494179865e-40  8.0690246529495510e-42  -7.4241530067523564e-43  7.5956653305938258e-44  -6.3285880968934464e-45  3.8411505859595974e-46  -1.9893588713959702e-47  1.5501489926242752e-48  -1.8028773724433895e-49  1.8602723630527226e-50  -1.5243688154142330e-51  1.0745671742842017e-52  -7.5510159287603040e-54  5.8503134640346183e-55  -4.7021351614878543e-56  3.4619592384885686e-57  -2.1455287118289786e-58  1.0488752879694074e-59  -3.5481136315508702e-61  3.3811523464067268e-63  5.5721678975934902e-64  -4.9381549670264056e-65  2.6264743931336205e-66  -1.8386703847202035e-67  4.5148834797526282e-03  2.6499489724063061e-03  8.6631794395516902e-03  8.2788295956508565e-03  3.8358422285118456e-03  1.2004892886168367e-03  1.4151945668433663e-03  3.9030546663977432e-04  7.7598336870169805e-05  1.0793508624454470e-05  7.4324685063305776e-07  -5.6226530527562150e-08  -1.9443475135391407e-08  -1.7423958294543926e-09  -2.5064398233501490e-12  9.1085708818834541e-12  1.8640559616153064e-13  -3.5216335011771462e-14  1.5605543013096888e-16  1.2422004498113968e-16  -4.9329165164896209e-18  3.8500888761651784e-20  8.2351849405713010e-21  -1.7639270393463645e-21  1.4563009979854935e-22  -5.6504365801729904e-24  -6.3483642640978462e-26  3.7192735804287355e-26  -4.0387723884987570e-27  2.6008543478172158e-28  -1.1073276916199997e-29  2.8459980541655639e-31  8.4855465879987597e-33  -2.4079017844482177e-33  2.5142990974000021e-34  -1.8494143394250004e-35  1.1612295043861018e-36  -7.1763832827541953e-38  4.5109018672725294e-39  -2.8272527060791725e-40  1.8242792676332705e-41  -1.2345800915702788e-42  8.2776842447132068e-44  -5.3925822727449451e-45  3.7576615196721725e-46  -2.9860027206855869e-47  2.4164375040725346e-48  -1.7400723917161109e-49  1.0688405209165907e-50  -5.8831962009190705e-52  3.2777243170176073e-53  -1.9668508765650457e-54  1.0862618153939264e-55  -3.5265997657785592e-57  -1.5691641171833445e-58  3.6846147092243068e-59  -3.4432679990536296e-60  2.1787715214364563e-61  -9.6260000779421093e-63  2.3223066968759626e-64  5.3349624418616968e-66  -1.9421369885879577e-66  4.0374751559183160e-03  2.4495252828946206e-03  8.3046630239896856e-03  8.6634508815648242e-03  4.2646098814922116e-03  1.4002708438775897e-03  3.6455420363659257e-04  6.4259342814503695e-05  5.4113560048422019e-06  -6.6600013771338335e-07  -2.8208444555574946e-07  -3.5151973813969900e-08  -2.6341674332877678e-10  4.1511600658488544e-10  3.3990478773251501e-11  -1.5523012148908152e-12  -2.7037531051728354e-13  1.9482374851414766e-15  6.7367014743568716e-16  -4.3073181846296855e-17  7.7745933982472247e-19  2.0535507687649822e-19  -1.8554929906074090e-20  5.5520566642787174e-22  2.3161624917897623e-23  -4.5514465996695257e-24  3.6527807867150503e-25  -1.9106627538069074e-26  6.0327999659826227e-28  1.5481871497485604e-29  -4.8835012386450992e-30  4.8781760577714738e-31  -3.3730210577605810e-32  1.9996034662756682e-33  -1.1469422942482019e-34  6.1295118328311177e-36  -2.7860908692199759e-37  1.0858553260415193e-38  -3.8689569922341312e-40  8.3081574706895642e-42  4.8138742252557911e-43  -5.4887133647318977e-44  9.6230650051989651e-46  2.0809586188396349e-46  -2.6990441030389506e-47  2.8391604853479403e-48  -3.2931540642660464e-49  3.4785172989073503e-50  -2.9943383366332386e-51  2.1511087949151048e-52  -1.4246899509470383e-53  9.7904993229853707e-55  -7.0517604296772748e-56  4.7067364669713485e-57  -2.4577994630073026e-58  6.8343361525626372e-60  3.1070257410939294e-61  -5.9591597462679612e-62  4.7752041788207544e-63  -2.6847389906865973e-64  1.6485647520045271e-65  2.1827940695338310e-03  1.4788490618251084e-03  4.0374359508905926e-03  4.5149485270727114e-03  2.6464230244595661e-03  8.9409897093757347e-04  2.0767999671734419e-04  2.0903228402212497e-05  -4.8654834628201648e-06  -2.4069601300073044e-06  -3.9915543068611969e-07  -5.1989758686454870e-09  9.4825724376808287e-09  1.4793562551442991e-09  2.4157135801268402e-11  -1.4876415702816456e-11  -1.1139399188497711e-12  4.3859564686652582e-14  3.6078679008880337e-15  -4.0404903380474197e-16  -4.3072950028249929e-18  1.9425906394396437e-18  -9.8748152725482072e-20  -7.6212050536776313e-22  4.7942971105525374e-22  -3.6641447920497042e-23  1.4033352046306051e-24  -5.6531852728113776e-28  -5.3830336750958809e-27  5.8642119951842882e-28  -4.2429297393815606e-29  2.5015020411803832e-30  -1.2565417615619157e-31  4.5002552603517757e-33  -1.5865578788389972e-35  -1.4265691315558640e-35  1.7623134207846495e-36  -1.7275917399286756e-37  1.4720552863781720e-38  -1.0728052515649361e-39  7.0934258030466430e-41  -4.7272263732746037e-42  3.2678504153682779e-43  -2.1854896202074620e-44  1.3484259758824185e-45  -7.9329945337499011e-47  4.7434153514745224e-48  -2.8654991197853376e-49  1.6101041535224718e-50  -7.8109667493306187e-52  3.1514998479371861e-53  -8.8791353454374890e-55  -2.8742642624407941e-56  1.0021911608391752e-56  -1.3115318564823326e-57  1.1926312444549529e-58  -7.9279904458163151e-60  3.5131167676079074e-61  -3.9626459439580540e-63  -9.5593723012253876e-64  2.2148457247393398e-64  1.4788349633528650e-03  1.1598570296841788e-03  2.4494726034288393e-03  2.6499255543144377e-03  1.6154296805374138e-03  5.5551907557211170e-04  9.4074512608593533e-05  -1.3138880402030169e-05  -1.2775893293232625e-05  -3.3833950655091742e-06  -2.7821264990162525e-07  7.8036747633774649e-08  2.5274553197661199e-08  2.1484024045795098e-09  -2.3492143290495120e-10  -6.0563655247573146e-11  -2.3902217549269899e-12  3.4404934175489161e-13  1.7755036514144840e-14  -2.2815108136711470e-15  -5.3124604070843028e-17  1.2124994238204426e-17  -3.6165401946917476e-19  -2.8562987071067815e-20  3.3298047016239971e-21  -1.5357835714127085e-22  2.0176782438727831e-25  6.2364274946070862e-25  -5.8895390447010585e-26  3.3239352095891605e-27  -1.3347299719016088e-28  2.8155987091363209e-30  1.8371785589313203e-31  -3.3760910055314512e-32  3.5623915709456727e-33  -3.1322877939328870e-34  2.3247780836032908e-35  -1.4822271268634007e-36  8.9291280742186467e-38  -5.5632526894633413e-39  3.4082751399714229e-40  -1.8309364699416640e-41  8.4692889857104521e-43  -3.9515762113574725e-44  2.2160080664720388e-45  -1.2771000670036631e-46  5.9817651765254473e-48  -2.3566380519640946e-49  1.3358155933871212e-50  -1.2325731435319370e-51  1.0787495209311177e-52  -8.3331119352543310e-54  6.3994622797771952e-55  -4.6532892830028253e-56  2.3058425047562483e-57  3.6581834952976908e-59  -2.3677899504494701e-59  3.0656802440967872e-60  -2.6209590904554784e-61  1.6614910268167085e-62  -1.2313173310118483e-63  </DataArray> 
</PointData> 
</Piece>
</UnstructuredGrid>
</VTKFile>