<?xml version="1.0"?>
<VTKFile type="UnstructuredGrid"  version="0.1"  >
<UnstructuredGrid>
<Piece  NumberOfPoints="670" NumberOfCells="1192">
<Points>
<DataArray  type="Float64"  NumberOfComponents="3"  format="ascii">0 0 0  0.04 -1.31357e-10 0  0.0400579 0.0400582 0  0 0.04 0  0.08 -2.62713e-10 0  0.080123 0.0401093 0  0.12 -3.9407e-10 0  0.120183 0.040127 0  0.16 -5.25427e-10 0  0.160176 0.0400597 0  0.2 -6.56784e-10 0  0.199997 0.0399142 0  0.24 -7.8814e-10 0  0.239816 0.0400642 0  0.28 -9.19497e-10 0  0.279804 0.0401377 0  0.32 -1.05085e-09 0  0.319855 0.0401297 0  0.36 -1.18221e-09 0  0.359906 0.0400945 0  0.4 -1.31357e-09 0  0.399941 0.0400609 0  0.44 -1.44492e-09 0  0.439962 0.0400367 0  0.48 -1.57628e-09 0  0.479975 0.0400214 0  0.52 -1.70764e-09 0  0.519983 0.0400122 0  0.5600000000000001 -1.83899e-09 0  0.559987 0.0400069 0  0.6 -1.97035e-09 0  0.59999 0.040004 0  0.64 -2.10171e-09 0  0.639993 0.0400023 0  0.68 -2.23306e-09 0  0.679994 0.0400013 0  0.72 -2.36442e-09 0  0.7199950000000001 0.0400008 0  0.76 -2.49578e-09 0  0.759996 0.0400005 0  0.8 -2.62713e-09 0  0.799997 0.0400002 0  0.84 -2.75849e-09 0  0.839997 0.0400001 0  0.88 -2.88985e-09 0  0.8799979999999999 0.04 0  0.92 -3.0212e-09 0  0.919999 0.0399999 0  0.96 -3.15256e-09 0  0.959999 0.0399998 0  1 -3.28392e-09 0  1 0.0399998 0  1.04 -3.41527e-09 0  1.04 0.0399998 0  1.08 -3.54663e-09 0  1.08 0.0399998 0  1.12 -3.67799e-09 0  1.12 0.0399998 0  1.16 -3.80934e-09 0  1.16 0.0399999 0  1.2 -3.9407e-09 0  1.2 0.04 0  1.24 -4.07206e-09 0  1.24 0.04 0  1.28 -4.20341e-09 0  1.28 0.0400001 0  1.32 -4.33477e-09 0  1.32 0.0400001 0  1.36 -4.46613e-09 0  1.36 0.04 0  1.4 -4.59748e-09 0  1.4 0.04 0  1.44 -4.72884e-09 0  1.44 0.04 0  1.48 -4.8602e-09 0  1.48 0.04 0  1.52 -4.99156e-09 0  1.52 0.04 0  1.56 -5.12291e-09 0  1.56 0.04 0  1.6 -5.25427e-09 0  1.6 0.0400001 0  1.64 -5.38563e-09 0  1.64 0.0400001 0  1.68 -5.51698e-09 0  1.68 0.04 0  1.72 -5.64834e-09 0  1.72 0.04 0  1.76 -5.7797e-09 0  1.76 0.04 0  1.8 -5.91105e-09 0  1.8 0.04 0  1.84 -6.04241e-09 0  1.84 0.04 0  1.88 -6.17377e-09 0  1.88 0.0400001 0  1.92 -6.30512e-09 0  1.92 0.0400001 0  1.96 -6.43648e-09 0  1.96 0.0400001 0  2 -6.56784e-09 0  2 0.0400001 0  2.04 -6.69919e-09 0  2.04 0.0400001 0  2.08 -6.83055e-09 0  2.08 0.04 0  2.12 -6.96191e-09 0  2.12 0.04 0  2.16 -7.09326e-09 0  2.16 0.0400001 0  2.2 -7.22462e-09 0  2.2 0.04 0  2.24 -7.35598e-09 0  2.24 0.04 0  2.28 -7.48733e-09 0  2.28 0.0399999 0  2.32 -7.618690000000001e-09 0  2.32 0.04 0  2.36 -7.750049999999999e-09 0  2.36 0.04 0  2.4 -7.8814e-09 0  2.4 0.04 0  0.0401088 0.0801235 0  0 0.08 0  0.0802509 0.0802518 0  0.120434 0.0803392 0  0.160522 0.0801977 0  0.199995 0.0795328 0  0.239464 0.0802049 0  0.279544 0.08035689999999999 0  0.319711 0.0802867 0  0.359828 0.08018740000000001 0  0.399896 0.0801123 0  0.439933 0.0800646 0  0.479955 0.0800365 0  0.519968 0.08002049999999999 0  0.559976 0.0800116 0  0.599982 0.0800066 0  0.6399860000000001 0.0800039 0  0.679989 0.0800023 0  0.719991 0.0800014 0  0.759992 0.0800008 0  0.799994 0.0800004 0  0.839995 0.08000019999999999 0  0.879996 0.0799999 0  0.919997 0.07999970000000001 0  0.959999 0.0799996 0  1 0.0799995 0  1.04 0.0799995 0  1.08 0.0799996 0  1.12 0.07999970000000001 0  1.16 0.0799998 0  1.2 0.08 0  1.24 0.0800001 0  1.28 0.0800001 0  1.32 0.0800001 0  1.36 0.08 0  1.4 0.0799999 0  1.44 0.0799999 0  1.48 0.0799999 0  1.52 0.0799999 0  1.56 0.08 0  1.6 0.0800001 0  1.64 0.0800001 0  1.68 0.08 0  1.72 0.0799999 0  1.76 0.0799999 0  1.8 0.0799999 0  1.84 0.0799999 0  1.88 0.08 0  1.92 0.0800001 0  1.96 0.0800001 0  2 0.0800001 0  2.04 0.08 0  2.08 0.0799999 0  2.12 0.0799999 0  2.16 0.08 0  2.2 0.08 0  2.24 0.0799999 0  2.28 0.0799998 0  2.32 0.0799999 0  2.36 0.0799999 0  2.4 0.08 0  0.0401262 0.120184 0  0 0.12 0  0.0803378 0.120435 0  0.120779 0.12078 0  0.161485 0.120859 0  0.199996 0.117814 0  0.238503 0.120866 0  0.279195 0.120798 0  0.319616 0.120473 0  0.359799 0.120256 0  0.39988 0.120136 0  0.439921 0.120073 0  0.479944 0.120039 0  0.519958 0.120022 0  0.5599690000000001 0.120012 0  0.599976 0.120007 0  0.639981 0.120004 0  0.679985 0.120002 0  0.719987 0.120002 0  0.7599900000000001 0.120001 0  0.799991 0.12 0  0.839993 0.12 0  0.879995 0.12 0  0.919996 0.12 0  0.959998 0.119999 0  1 0.119999 0  1.04 0.119999 0  1.08 0.119999 0  1.12 0.12 0  1.16 0.12 0  1.2 0.12 0  1.24 0.12 0  1.28 0.12 0  1.32 0.12 0  1.36 0.12 0  1.4 0.12 0  1.44 0.12 0  1.48 0.12 0  1.52 0.12 0  1.56 0.12 0  1.6 0.12 0  1.64 0.12 0  1.68 0.12 0  1.72 0.12 0  1.76 0.12 0  1.8 0.12 0  1.84 0.12 0  1.88 0.12 0  1.92 0.12 0  1.96 0.12 0  2 0.12 0  2.04 0.12 0  2.08 0.12 0  2.12 0.12 0  2.16 0.12 0  2.2 0.12 0  2.24 0.12 0  2.28 0.12 0  2.32 0.12 0  2.36 0.12 0  2.4 0.12 0  0.0400582 0.160177 0  0 0.16 0  0.0801954 0.160525 0  0.120857 0.161488 0  0.164645 0.164645 0  0.2 0.15 0  0.235355 0.164645 0  0.279119 0.161498 0  0.319759 0.16055 0  0.359874 0.160228 0  0.399906 0.160104 0  0.439925 0.160051 0  0.479941 0.160027 0  0.519954 0.160014 0  0.559964 0.160008 0  0.5999719999999999 0.160005 0  0.639978 0.160003 0  0.679982 0.160002 0  0.719985 0.160001 0  0.759988 0.160001 0  0.79999 0.16 0  0.839992 0.16 0  0.8799940000000001 0.16 0  0.919996 0.159999 0  0.959998 0.159999 0  1 0.159999 0  1.04 0.159999 0  1.08 0.159999 0  1.12 0.16 0  1.16 0.16 0  1.2 0.16 0  1.24 0.16 0  1.28 0.16 0  1.32 0.16 0  1.36 0.16 0  1.4 0.16 0  1.44 0.16 0  1.48 0.16 0  1.52 0.16 0  1.56 0.16 0  1.6 0.16 0  1.64 0.16 0  1.68 0.16 0  1.72 0.16 0  1.76 0.16 0  1.8 0.16 0  1.84 0.16 0  1.88 0.16 0  1.92 0.16 0  1.96 0.16 0  2 0.16 0  2.04 0.16 0  2.08 0.16 0  2.12 0.16 0  2.16 0.16 0  2.2 0.16 0  2.24 0.16 0  2.28 0.16 0  2.32 0.16 0  2.36 0.16 0  2.4 0.16 0  0.0399111 0.2 0  0 0.2 0  0.0795281 0.2 0  0.117811 0.2 0  0.15 0.2 0  0.282167 0.2 0  0.25 0.2 0  0.320429 0.2 0  0.36003 0.200001 0  0.399944 0.200001 0  0.439934 0.200001 0  0.479942 0.200001 0  0.519953 0.200001 0  0.559963 0.200001 0  0.59997 0.200001 0  0.639976 0.200001 0  0.6799809999999999 0.200001 0  0.719984 0.200001 0  0.759987 0.200001 0  0.799989 0.2 0  0.839991 0.2 0  0.879993 0.2 0  0.919996 0.199999 0  0.959998 0.199999 0  1 0.199999 0  1.04 0.199999 0  1.08 0.199999 0  1.12 0.2 0  1.16 0.2 0  1.2 0.2 0  1.24 0.2 0  1.28 0.2 0  1.32 0.2 0  1.36 0.2 0  1.4 0.2 0  1.44 0.2 0  1.48 0.2 0  1.52 0.2 0  1.56 0.2 0  1.6 0.2 0  1.64 0.2 0  1.68 0.2 0  1.72 0.2 0  1.76 0.2 0  1.8 0.2 0  1.84 0.2 0  1.88 0.2 0  1.92 0.2 0  1.96 0.2 0  2 0.2 0  2.04 0.2 0  2.08 0.2 0  2.12 0.2 0  2.16 0.2 0  2.2 0.2 0  2.24 0.2 0  2.28 0.2 0  2.32 0.2 0  2.36 0.2 0  2.4 0.2 0  0.0400582 0.239823 0  0 0.24 0  0.0801953 0.239475 0  0.120857 0.238513 0  0.164645 0.235355 0  0.279119 0.238502 0  0.235355 0.235355 0  0.319759 0.239451 0  0.359873 0.239774 0  0.399905 0.239898 0  0.439925 0.239951 0  0.479941 0.239976 0  0.519954 0.239988 0  0.559964 0.239994 0  0.5999719999999999 0.239997 0  0.639977 0.239999 0  0.679982 0.24 0  0.719985 0.24 0  0.759987 0.24 0  0.79999 0.24 0  0.839992 0.24 0  0.8799940000000001 0.24 0  0.919996 0.239999 0  0.959998 0.239999 0  1 0.239999 0  1.04 0.239999 0  1.08 0.239999 0  1.12 0.24 0  1.16 0.24 0  1.2 0.24 0  1.24 0.24 0  1.28 0.24 0  1.32 0.24 0  1.36 0.24 0  1.4 0.24 0  1.44 0.24 0  1.48 0.24 0  1.52 0.24 0  1.56 0.24 0  1.6 0.24 0  1.64 0.24 0  1.68 0.24 0  1.72 0.24 0  1.76 0.24 0  1.8 0.24 0  1.84 0.24 0  1.88 0.24 0  1.92 0.24 0  1.96 0.24 0  2 0.24 0  2.04 0.24 0  2.08 0.24 0  2.12 0.24 0  2.16 0.24 0  2.2 0.24 0  2.24 0.24 0  2.28 0.24 0  2.32 0.24 0  2.36 0.24 0  2.4 0.24 0  0.0401261 0.279816 0  0 0.28 0  0.0803376 0.279565 0  0.120778 0.27922 0  0.161485 0.279141 0  0.2 0.25 0  0.199996 0.282186 0  0.238503 0.279135 0  0.279195 0.279202 0  0.319616 0.279528 0  0.359799 0.279745 0  0.39988 0.279865 0  0.43992 0.279929 0  0.479944 0.279962 0  0.519958 0.27998 0  0.559968 0.27999 0  0.599976 0.279995 0  0.639981 0.279998 0  0.679984 0.279999 0  0.719987 0.28 0  0.759989 0.28 0  0.799991 0.28 0  0.839993 0.28 0  0.879995 0.28 0  0.919997 0.279999 0  0.959998 0.279999 0  1 0.279999 0  1.04 0.279999 0  1.08 0.28 0  1.12 0.28 0  1.16 0.28 0  1.2 0.28 0  1.24 0.28 0  1.28 0.28 0  1.32 0.28 0  1.36 0.28 0  1.4 0.28 0  1.44 0.28 0  1.48 0.28 0  1.52 0.28 0  1.56 0.28 0  1.6 0.28 0  1.64 0.28 0  1.68 0.28 0  1.72 0.28 0  1.76 0.28 0  1.8 0.28 0  1.84 0.28 0  1.88 0.28 0  1.92 0.28 0  1.96 0.28 0  2 0.28 0  2.04 0.28 0  2.08 0.28 0  2.12 0.28 0  2.16 0.28 0  2.2 0.28 0  2.24 0.28 0  2.28 0.28 0  2.32 0.28 0  2.36 0.28 0  2.4 0.28 0  0.0401086 0.319877 0  0 0.32 0  0.08025060000000001 0.319748 0  0.120433 0.319661 0  0.160522 0.319802 0  0.199995 0.320467 0  0.239464 0.319795 0  0.279543 0.319643 0  0.31971 0.319714 0  0.359828 0.319813 0  0.399895 0.319889 0  0.439933 0.319937 0  0.479955 0.319965 0  0.519968 0.319981 0  0.559976 0.31999 0  0.599982 0.319995 0  0.6399860000000001 0.319998 0  0.679989 0.319999 0  0.719991 0.32 0  0.759992 0.32 0  0.799994 0.32 0  0.839995 0.32 0  0.879996 0.32 0  0.919998 0.32 0  0.959999 0.32 0  1 0.32 0  1.04 0.32 0  1.08 0.32 0  1.12 0.32 0  1.16 0.32 0  1.2 0.32 0  1.24 0.32 0  1.28 0.32 0  1.32 0.32 0  1.36 0.32 0  1.4 0.32 0  1.44 0.32 0  1.48 0.32 0  1.52 0.32 0  1.56 0.32 0  1.6 0.32 0  1.64 0.32 0  1.68 0.32 0  1.72 0.32 0  1.76 0.32 0  1.8 0.32 0  1.84 0.32 0  1.88 0.32 0  1.92 0.32 0  1.96 0.32 0  2 0.32 0  2.04 0.32 0  2.08 0.32 0  2.12 0.32 0  2.16 0.32 0  2.2 0.32 0  2.24 0.32 0  2.28 0.32 0  2.32 0.32 0  2.36 0.32 0  2.4 0.32 0  0.0400579 0.359942 0  0 0.36 0  0.0801229 0.359891 0  0.120183 0.359873 0  0.160175 0.35994 0  0.199997 0.360086 0  0.239816 0.359936 0  0.279804 0.359862 0  0.319855 0.359871 0  0.359906 0.359906 0  0.399941 0.35994 0  0.439962 0.359964 0  0.479975 0.359979 0  0.5199820000000001 0.359989 0  0.559987 0.359994 0  0.59999 0.359997 0  0.639993 0.359998 0  0.679994 0.359999 0  0.7199950000000001 0.36 0  0.759996 0.36 0  0.799997 0.36 0  0.839997 0.36 0  0.8799979999999999 0.36 0  0
[...]
<PointData  Scalars="f_10391-1"> 
<DataArray  type="Float64"  Name="f_10391-1"  format="ascii">6.1108045708244921e-04  6.3120705058896287e-04  8.1093276958004747e-04  8.0815640588848838e-04  6.1023329736016477e-04  7.7918328294046470e-04  5.4684625904366730e-04  6.9482233755477579e-04  4.4265521318963345e-04  5.5356985965617899e-04  3.2044548913324539e-04  3.9077897504847397e-04  2.1065095103541283e-04  2.5147340790728905e-04  1.2945594320352597e-04  1.5324000923445515e-04  7.5394290739591463e-05  8.9245752039798047e-05  4.1666989742254859e-05  4.9433926724943908e-05  2.1766075406515292e-05  2.5844951293830254e-05  1.0695044652034433e-05  1.2674068305165243e-05  4.9223707544960480e-06  5.8036559124153021e-06  2.1150632387081171e-06  2.4736094493863112e-06  8.4620588865821450e-07  9.7871617826233275e-07  3.1449456125758434e-07  3.5853124886481762e-07  1.0832269056873727e-07  1.2124491846827591e-07  3.4488155046533029e-08  3.7717444879101789e-08  1.0119045052939057e-08  1.0743156362291140e-08  2.7257281483393014e-09  2.7842636126114901e-09  6.7077617395309856e-10  6.5072908275178290e-10  1.4982198039683128e-10  1.3530347424001702e-10  3.0094172374229551e-11  2.4459055632510873e-11  5.3616312567617479e-12  3.6742627435280845e-12  8.2813340989712068e-13  4.0735761182635457e-13  1.0613856341649492e-13  1.6767315042404276e-14  1.0106740909748535e-14  -6.0533715616273559e-15  4.0626679486031934e-16  -2.0335625906242885e-15  -8.6859858990476860e-17  -3.7834703973753968e-16  -2.5126255649287490e-17  -4.8321563469772846e-17  -3.7061967852135860e-18  -3.7454519632184375e-18  -3.4562425516566489e-19  2.7016386394604605e-20  -1.3806528199472850e-20  6.0329278583301243e-20  1.6266987450597731e-21  1.0145213639507921e-20  3.6755998999370774e-22  9.0164564327524322e-22  3.2880656382789794e-23  2.2686848255735864e-23  8.3603136768390955e-25  -5.7387913749565472e-24  -1.5937184703724333e-25  -8.9400357971153313e-25  -2.1194843981500886e-26  -5.2264280466541144e-26  -8.5406345022459792e-28  1.2252876612791161e-27  4.8544331819557595e-29  4.2942162115330999e-28  6.5581408590076260e-30  2.3746583406279258e-29  5.7976149698817851e-32  -7.6379256370986969e-31  -2.6068555149772318e-32  -1.4039854691452709e-31  -6.7382764620709126e-34  -5.6553405846062337e-34  1.1639081911095441e-34  6.5946622470859552e-34  3.5350958877621974e-36  1.1934269953555076e-35  -6.1718859370036888e-37  -3.1864222449458811e-36  -1.6186033186157372e-38  -6.8667668749291926e-38  3.3875937754914701e-39  1.6051961597143734e-38  5.3020258753073265e-41  2.2031836234700011e-40  -1.7362227916514719e-41  -8.1581453344314442e-41  7.0754947602735631e-44  3.8143881685439514e-43  7.8805214417021379e-44  3.8784840855177051e-43  -2.7435921589190910e-45  -1.2562538423241428e-44  -2.6455451664420600e-46  -1.4603196560141421e-45  2.4056975408335452e-47  1.1596643934062890e-46  1.2950349510761688e-49  2.2515776522765459e-48  -1.2506864320144440e-49  -6.7901708282135708e-49  5.7972403135882990e-51  2.0977569497960294e-50  7.4330776519346949e-52  4.4913351551024162e-51  1.3885704223828271e-03  1.3847831614810619e-03  1.3415579234396116e-03  1.1968198608643091e-03  9.2465472029638950e-04  6.1336128905980971e-04  3.7857754872336211e-04  2.3013522431644204e-04  1.3602067392233259e-04  7.6477890082754619e-05  4.0372207263195666e-05  1.9886275861342557e-05  9.1127397267503402e-06  3.8779012450563149e-06  1.5299462806446841e-06  5.5849247371713138e-07  1.8815863055912334e-07  5.8308931126260720e-08  1.6547223662529128e-08  4.2745924255335999e-09  9.9673323541696021e-10  2.0724583268144985e-10  3.7683642166791498e-11  5.7872785254757358e-12  6.9526624332841787e-13  5.0192068479259208e-14  -2.3589297545586658e-15  -1.4719312876451285e-15  -2.4859269918059688e-16  -1.8083557043929993e-17  1.9392077226952932e-18  8.2282881691675186e-19  1.3181596433283470e-19  1.0928035178993719e-20  -1.3127974406766181e-22  -1.7977729657510560e-22  -2.6523653761814560e-23  -1.7840829631054662e-24  2.8569394604428197e-26  1.8266153853679088e-26  1.5771474154634262e-27  1.0658825976840808e-29  -8.8973122772534429e-30  -5.9645629745615638e-31  1.7990475849045760e-32  3.7178272486978125e-33  1.8810322037585679e-35  -1.7815585174755776e-35  -3.5538093281652793e-37  7.8370615156887416e-38  1.3494628264571755e-39  -3.7461436014472053e-40  5.6147735576182716e-43  1.8420222983066980e-42  -5.4823394487032085e-44  -7.8671255108407571e-45  5.5326824668354484e-46  2.0279896686836412e-47  -3.6408608836585729e-48  4.3853687409863917e-50  3.1477812686535654e-50  2.5081275479083252e-03  2.4842377325528424e-03  2.4667318196336472e-03  2.2306733115027540e-03  1.6625543963807929e-03  9.7161858647535325e-04  5.7968677828981242e-04  3.6506692388690653e-04  2.2293390406818962e-04  1.2728873850923763e-04  6.7405236452279668e-05  3.3085281077578068e-05  1.5060247330219756e-05  6.3572910635256902e-06  2.4860587862571097e-06  8.9905314488865113e-07  2.9982054506539419e-07  9.1840009404666880e-08  2.5703033039916285e-08  6.5222013232818752e-09  1.4843455562716060e-09  2.9774262395579233e-10  5.1051694783217032e-11  7.0042477251759298e-12  6.2109478726530898e-13  -1.4765891415659720e-14  -1.9993659299488076e-14  -4.7774054054847295e-15  -7.1494859306474076e-16  -6.6651394924529089e-17  -1.4562570795733096e-18  6.6768405791047562e-19  1.0646410789934477e-19  2.1062853397866216e-21  -1.8724782483528077e-21  -3.6213718919758327e-22  -2.8002730180533694e-23  1.1187912748794672e-24  5.4107453445458227e-25  6.0119533868601028e-26  1.8939716309099679e-27  -3.1113307536094237e-28  -4.1979228238849629e-29  -1.0991017575575812e-30  1.9147785351102393e-31  1.7010670457528898e-32  -2.4638319802135108e-34  -9.1496954125707719e-35  -8.8345452565394144e-37  4.1364228527607407e-37  5.8426172631905440e-39  -1.9501808512047207e-39  -6.0834461757013088e-42  9.6205740558335617e-42  -1.9028844654814606e-43  -4.4479662526838163e-44  2.3533430192581772e-45  1.5578047434273579e-46  -1.7836446835864716e-47  -1.6717659317854249e-49  1.9061626135614093e-49  4.3816993042897576e-03  4.2836216023898754e-03  4.4478231488847206e-03  4.1669839848832929e-03  3.1740195542428930e-03  1.2784924323615697e-03  7.9644182629965842e-04  5.8308723675031449e-04  3.6846179117341264e-04  2.1002774137190370e-04  1.0978867178558801e-04  5.3049608548841960e-05  2.3769525485365229e-05  9.8800419096047355e-06  3.8049959654183903e-06  1.3541764801107080e-06  4.4366887368240960e-07  1.3310472029868059e-07  3.6292137358941328e-08  8.8950119271561626e-09  1.9261967042722969e-09  3.5737502804196635e-10  5.3141761776496974e-11  5.0913495066051727e-12  -1.5251988962062803e-13  -2.0414715092616593e-13  -5.3596637833182159e-14  -8.8720064427160791e-15  -8.9897278487778946e-16  -6.7887988475817272e-18  1.8178877371482731e-17  4.0419297941826461e-18  4.8072241793799810e-19  2.3966051346602975e-20  -2.6063375197821773e-21  -6.2456843508863425e-22  -3.8852133213594201e-23  4.2448774880727556e-24  1.0700700838797164e-24  7.0797537963604084e-26  -5.5259246280379611e-27  -1.4957859394855749e-27  -1.0803895431033006e-28  2.3805025755829687e-30  9.8865613829750385e-31  5.2402997201422405e-32  -2.7471599288185486e-33  -3.8029021466487129e-34  3.8195944246646540e-36  2.0442656286577344e-36  3.4797282121545451e-39  -1.0618397863995931e-38  -1.1136575407709454e-41  5.4645345986790268e-41  -5.6369047760494481e-43  -2.6645163874187197e-43  8.5734841078036404e-45  1.1055523119148447e-45  -7.6967652018693725e-47  -3.0800936241436883e-48  9.9240022749135802e-49  7.2103428920793919e-03  6.8912965682576613e-03  7.6380543178990743e-03  7.3963808441696406e-03  6.8871475745570917e-03  9.8934133093023214e-04  1.3034810048271808e-03  6.0488866568511352e-04  3.3173955703420441e-04  1.6795595478648191e-04  7.9088522637243419e-05  3.4673185134843164e-05  1.4131181098487210e-05  5.3381571835011887e-06  1.8614042906795605e-06  5.9576115119003595e-07  1.7368176856876885e-07  4.5613476960353712e-08  1.0605444070717764e-08  2.1171312689890995e-09  3.3947462892195967e-10  3.5170438551294062e-11  -1.1233769648993556e-12  -1.6493662761925745e-12  -4.7070931555387229e-13  -8.4656935918963309e-14  -9.2272224063947594e-15  -7.8883275928813669e-18  2.4902364962676164e-16  6.0265243611196359e-17  7.8853311008721457e-18  3.8148257746382181e-19  -8.2743171427176945e-20  -2.3265843251972982e-20  -2.8481528004803380e-21  -1.3305699073029757e-22  1.6310530517689906e-23  3.5589340246015937e-24  2.2420776005171011e-25  -1.4307408896032599e-26  -3.6435990228485873e-27  -1.7788857347968526e-28  2.0986628797942449e-29  3.4835926097214276e-30  1.1535031070135985e-31  -1.4416844196723795e-32  -1.2276484775640294e-33  5.0579610992595656e-35  8.7750421664440839e-36  -1.2863468490271501e-37  -5.3184946436916657e-38  2.3586810120733635e-40  2.9257301141200563e-40  -1.8206481598778135e-42  -1.5070896407547133e-42  2.8057050325505981e-44  6.9543691093356080e-45  -2.9909163807924371e-46  -2.6130621430210011e-47  4.5514380568866408e-48  1.1124207591554754e-02  1.0108899965278239e-02  1.2635948965959697e-02  1.1799816668950708e-02  9.7208361748069363e-03  1.7062548536083473e-03  3.2454032836308636e-03  9.2379048406246932e-04  4.7830608046706645e-04  2.3375963594293413e-04  1.0727774473394736e-04  4.6036335529420848e-05  1.8391403041157354e-05  6.8054400577305185e-06  2.3181276237061932e-06  7.2108771739445412e-07  2.0252263144216468e-07  5.0475224028793958e-08  1.0827602969899584e-08  1.8715250777330086e-09  2.1054307762159119e-10  -6.5511204376747891e-12  -1.1290979610647894e-11  -3.5248046982628282e-12  -6.9634098900954535e-13  -8.5155440628215252e-14  -1.0409704524360868e-15  2.4419106796871718e-15  6.7474733026325201e-16  1.0003623869723054e-16  5.9414969245637117e-18  -1.1410022777217620e-18  -3.8480176274879845e-19  -5.4373665550667562e-20  -2.8972241350760716e-21  4.6553587713245509e-22  1.2934303049942359e-22  1.3995023017999096e-23  3.7807337075382035e-25  -1.0963644038000437e-25  -1.6598175229888516e-26  -7.0078736309001579e-28  7.5961846820763386e-29  1.1387089691354488e-29  2.2433081560096499e-31  -6.2595736569559688e-32  -4.0037244669733017e-33  2.8507841754118920e-34  3.5787179228296435e-35  -9.0161091938357570e-37  -2.4214964371603263e-37  1.6153451299083423e-39  1.4057819280954533e-39  -3.2810602451253668e-42  -7.5041335182822682e-42  7.4801608002842598e-44  3.7363949399850433e-44  -1.0469639890428458e-45  -1.6364847167654866e-46  1.8767803990703963e-47  1.4634782001083080e-02  1.2764043856682649e-02  1.8631141148726410e-02  1.7594288532647828e-02  1.1851350004879538e-02  6.9616771660041959e-03  7.4918900506872523e-03  4.2639126372483087e-03  2.2980116603316405e-03  1.2054121184606763e-03  6.0769063904754430e-04  2.9101840802061289e-04  1.3128211388935135e-04  5.5412614250184053e-05  2.1747865865597300e-05  7.8816709633912446e-06  2.6154979035733997e-06  7.8577743104718528e-07  2.1007213924209970e-07  4.8503499340503385e-08  9.0762596821801719e-09  1.1253540616931247e-09  -2.5307347331093404e-11  -6.5550176851566369e-11  -2.2699682940751034e-11  -4.9797054323203753e-12  -6.9874336924296848e-13  -2.3877069687681100e-14  1.8842692642006780e-14  6.2418329232285239e-15  1.0839515157062420e-15  8.8714246623670952e-17  -9.4934471933469429e-18  -4.6399847177871223e-18  -7.9542346138922650e-19  -5.8773853713332480e-20  5.7305586434277436e-21  2.3004544721556502e-21  3.0720990768694722e-22  1.2237228916542083e-23  -2.9606214763868173e-24  -6.2830646820550266e-25  -5.0407578760878526e-26  6.1255241163911708e-28  5.6051970417401400e-28  5.0229378108171023e-29  8.5454121676399309e-32  -3.1422529238896804e-31  -1.4917360414344553e-32  1.6138735231254031e-33  1.7347991431957588e-34  -3.8363848679241049e-36  -1.1299779398899706e-36  5.4216016125439225e-40  6.3574280410339386e-39  3.8193140199159941e-41  -3.3810730359942246e-41  2.4235861070951549e-45  1.7575818443537943e-43  -2.7726067313914467e-45  -8.3466058967501271e-46  6.7778079654719531e-47  1.4994006303482256e-02  1.3377399308315269e-02  1.9089660829087415e-02  1.8671895997829098e-02  1.2720209287608445e-02  7.7501418253180226e-03  4.5578850275754907e-03  2.5443651003998705e-03  1.3541800383696716e-03  6.8438939811866811e-04  3.2651416252729959e-04  1.4614110504100204e-04  6.0979140267275002e-05  2.3557271495506179e-05  8.3554513520794454e-06  2.6906885410533548e-06  7.7379886220759963e-07  1.9320689169745118e-07  3.9505208586154690e-08  5.5504903703559901e-09  8.6880257225757417e-12  -3.1469061286087152e-10  -1.2457265702187517e-10  -3.0756801216244833e-11  -5.0194885251103135e-12  -3.1678103913762963e-13  1.1200243740429216e-13  4.7609851122924396e-14  9.8477932850454597e-15  1.0795291009446290e-15  -3.9693084485583067e-17  -4.3971025175538848e-17  -9.5029054643940452e-18  -9.8335915076590645e-19  2.8412983888908026e-20  2.9383102308729976e-20  5.1381683211979666e-21  3.4691835246948194e-22  -3.7754392888349752e-23  -1.2442272212658710e-23  -1.3287361696240878e-24  -8.3231298585643457e-27  1.7085336973446018e-26  2.2998200471972633e-27  8.4955761294887784e-29  -1.2709099357604293e-29  -1.8115506562477492e-30  -3.8347830961175064e-32  1.0536301860803908e-32  8.5053599433510738e-34  -2.5738381045806520e-35  -5.9627056742079896e-36  -3.4061362167826043e-38  3.0278006961487203e-38  4.9269264583076637e-40  -1.5133513866384886e-40  -1.9601938115873852e-42  7.7677232409341014e-43  -1.3533446410170151e-45  -3.7869375492743415e-45  1.9472478634567024e-46  1.3339598330648352e-02  1.2608307805838536e-02  1.5018122424604298e-02  1.4695769323384882e-02  1.1221401170929072e-02  7.3269580863094359e-03  4.4919218716666029e-03  2.5838859984634753e-03  1.3988101440824449e-03  7.1211713340299184e-04  3.3984069259185230e-04  1.5131962653957529e-04  6.2488160674359033e-05  2.3750476556355970e-05  8.2226341847516242e-06  2.5540234917088821e-06  6.9395623061729833e-07  1.5687639366181654e-07  2.5706516411687851e-08  1.1066361389770785e-09  -1.1908806727230745e-09  -5.7356359987582783e-10  -1.6260070048392804e-10  -3.1180853493530524e-11  -3.0352237070501700e-12  4.6080943768875764e-13  2.9433385791337143e-13  7.3967491753589927e-14  1.0488757575405137e-14  2.0275450453116396e-16  -3.2169436438696200e-16  -9.1326229577752066e-17  -1.2634833551769477e-17  -2.9647251989658818e-19  2.8250619695413949e-19  6.8017941731655838e-20  6.9765711266871900e-21  -1.8570936210746037e-22  -1.7856680064108184e-22  -2.6850110477850476e-23  -1.1136302595071348e-24  2.7669835147047450e-25  5.6138730092046788e-26  3.5129572252948771e-27  -2.9706649317015176e-28  -7.6297076737342141e-29  -4.9596911952789600e-30  2.5343305874060926e-31  6.4941604560879655e-32  3.1047082114508969e-33  -2.2526150661057573e-34  -2.9659855860678740e-35  6.9160348018315272e-38  1.5549326531556103e-37  2.6141915552346235e-39  -7.3728800746489695e-40  -1.5464485255123110e-41  3.5444212693373504e-42  3.7085546639397836e-44  -1.6989264200288818e-44  3.6746334426645329e-46  1.2616170769126467e-02  1.2290765776675967e-02  1.3408576418695507e-02  1.2829786740473007e-02  1.0207993919912122e-02  7.0074573866409891e-03  4.3916930317445752e-03  2.5568656468380902e-03  1.3920012623335892e-03  7.0914729309804055e-04  3.3721615729970884e-04  1.4898347499568695e-04  6.0750207492761342e-05  2.2654095558232934e-05  7.6229150386294759e-06  2.2653122715078707e-06  5.7101106323712965e-07  1.1062700248907593e-07  1.0494831398820177e-08  -3.1696040038091017e-09  -2.1662490693100931e-09  -7.2787241986585241e-10  -1.6566273011587189e-10  -2.2509958583826416e-11  7.1898504039472210e-13  1.4342761436946359e-12  4.5528806448335501e-13  8.2005762266802516e-14  5.6260392101218825e-15  -1.7014771058489837e-15  -6.9829152029125531e-16  -1.2629583173968111e-16  -8.6114417228885497e-18  1.9267771455891142e-18  7.0347952459511661e-19  1.0107983139203613e-19  2.7857560839948250e-21  -1.9017778778464859e-21  -4.1840335178410007e-22  -3.3886262756414034e-23  2.5286524259998327e-24  1.0087870725824863e-24  1.0544929900024750e-25  -1.2623952096163354e-27  -1.6974854512334433e-27  -1.8914559543811223e-28  -3.5511063673738122e-31  2.1444353909746464e-30  2.2170421430383527e-31  1.2545274771663364e-33  -1.5905981274604354e-33  -1.1301399517321170e-34  3.3542095888246611e-36  7.2842601958838535e-37  2.0398702515326636e-39  -3.6849021440339032e-39  -5.3706567600203762e-41  1.7327494184225835e-41  1.9073232264571808e-43  -8.1022411279247652e-44  1.3301939130287399e-45  </DataArray> 
</PointData> 
</Piece>
</UnstructuredGrid>
</VTKFile>