<?xml version="1.0"?>
<VTKFile type="UnstructuredGrid"  version="0.1"  >
<UnstructuredGrid>
<Piece  NumberOfPoints="670" NumberOfCells="1192">
<Points>
<DataArray  type="Float64"  NumberOfComponents="3"  format="ascii">0 0 0  0.04 -1.31357e-10 0  0.0400579 0.0400582 0  0 0.04 0  0.08 -2.62713e-10 0  0.080123 0.0401093 0  0.12 -3.9407e-10 0  0.120183 0.040127 0  0.16 -5.25427e-10 0  0.160176 0.0400597 0  0.2 -6.56784e-10 0  0.199997 0.0399142 0  0.24 -7.8814e-10 0  0.239816 0.0400642 0  0.28 -9.19497e-10 0  0.279804 0.0401377 0  0.32 -1.05085e-09 0  0.319855 0.0401297 0  0.36 -1.18221e-09 0  0.359906 0.0400945 0  0.4 -1.31357e-09 0  0.399941 0.0400609 0  0.44 -1.44492e-09 0  0.439962 0.0400367 0  0.48 -1.57628e-09 0  0.479975 0.0400214 0  0.52 -1.70764e-09 0  0.519983 0.0400122 0  0.5600000000000001 -1.83899e-09 0  0.559987 0.0400069 0  0.6 -1.97035e-09 0  0.59999 0.040004 0  0.64 -2.10171e-09 0  0.639993 0.0400023 0  0.68 -2.23306e-09 0  0.679994 0.0400013 0  0.72 -2.36442e-09 0  0.7199950000000001 0.0400008 0  0.76 -2.49578e-09 0  0.759996 0.0400005 0  0.8 -2.62713e-09 0  0.799997 0.0400002 0  0.84 -2.75849e-09 0  0.839997 0.0400001 0  0.88 -2.88985e-09 0  0.8799979999999999 0.04 0  0.92 -3.0212e-09 0  0.919999 0.0399999 0  0.96 -3.15256e-09 0  0.959999 0.0399998 0  1 -3.28392e-09 0  1 0.0399998 0  1.04 -3.41527e-09 0  1.04 0.0399998 0  1.08 -3.54663e-09 0  1.08 0.0399998 0  1.12 -3.67799e-09 0  1.12 0.0399998 0  1.16 -3.80934e-09 0  1.16 0.0399999 0  1.2 -3.9407e-09 0  1.2 0.04 0  1.24 -4.07206e-09 0  1.24 0.04 0  1.28 -4.20341e-09 0  1.28 0.0400001 0  1.32 -4.33477e-09 0  1.32 0.0400001 0  1.36 -4.46613e-09 0  1.36 0.04 0  1.4 -4.59748e-09 0  1.4 0.04 0  1.44 -4.72884e-09 0  1.44 0.04 0  1.48 -4.8602e-09 0  1.48 0.04 0  1.52 -4.99156e-09 0  1.52 0.04 0  1.56 -5.12291e-09 0  1.56 0.04 0  1.6 -5.25427e-09 0  1.6 0.0400001 0  1.64 -5.38563e-09 0  1.64 0.0400001 0  1.68 -5.51698e-09 0  1.68 0.04 0  1.72 -5.64834e-09 0  1.72 0.04 0  1.76 -5.7797e-09 0  1.76 0.04 0  1.8 -5.91105e-09 0  1.8 0.04 0  1.84 -6.04241e-09 0  1.84 0.04 0  1.88 -6.17377e-09 0  1.88 0.0400001 0  1.92 -6.30512e-09 0  1.92 0.0400001 0  1.96 -6.43648e-09 0  1.96 0.0400001 0  2 -6.56784e-09 0  2 0.0400001 0  2.04 -6.69919e-09 0  2.04 0.0400001 0  2.08 -6.83055e-09 0  2.08 0.04 0  2.12 -6.96191e-09 0  2.12 0.04 0  2.16 -7.09326e-09 0  2.16 0.0400001 0  2.2 -7.22462e-09 0  2.2 0.04 0  2.24 -7.35598e-09 0  2.24 0.04 0  2.28 -7.48733e-09 0  2.28 0.0399999 0  2.32 -7.618690000000001e-09 0  2.32 0.04 0  2.36 -7.750049999999999e-09 0  2.36 0.04 0  2.4 -7.8814e-09 0  2.4 0.04 0  0.0401088 0.0801235 0  0 0.08 0  0.0802509 0.0802518 0  0.120434 0.0803392 0  0.160522 0.0801977 0  0.199995 0.0795328 0  0.239464 0.0802049 0  0.279544 0.08035689999999999 0  0.319711 0.0802867 0  0.359828 0.08018740000000001 0  0.399896 0.0801123 0  0.439933 0.0800646 0  0.479955 0.0800365 0  0.519968 0.08002049999999999 0  0.559976 0.0800116 0  0.599982 0.0800066 0  0.6399860000000001 0.0800039 0  0.679989 0.0800023 0  0.719991 0.0800014 0  0.759992 0.0800008 0  0.799994 0.0800004 0  0.839995 0.08000019999999999 0  0.879996 0.0799999 0  0.919997 0.07999970000000001 0  0.959999 0.0799996 0  1 0.0799995 0  1.04 0.0799995 0  1.08 0.0799996 0  1.12 0.07999970000000001 0  1.16 0.0799998 0  1.2 0.08 0  1.24 0.0800001 0  1.28 0.0800001 0  1.32 0.0800001 0  1.36 0.08 0  1.4 0.0799999 0  1.44 0.0799999 0  1.48 0.0799999 0  1.52 0.0799999 0  1.56 0.08 0  1.6 0.0800001 0  1.64 0.0800001 0  1.68 0.08 0  1.72 0.0799999 0  1.76 0.0799999 0  1.8 0.0799999 0  1.84 0.0799999 0  1.88 0.08 0  1.92 0.0800001 0  1.96 0.0800001 0  2 0.0800001 0  2.04 0.08 0  2.08 0.0799999 0  2.12 0.0799999 0  2.16 0.08 0  2.2 0.08 0  2.24 0.0799999 0  2.28 0.0799998 0  2.32 0.0799999 0  2.36 0.0799999 0  2.4 0.08 0  0.0401262 0.120184 0  0 0.12 0  0.0803378 0.120435 0  0.120779 0.12078 0  0.161485 0.120859 0  0.199996 0.117814 0  0.238503 0.120866 0  0.279195 0.120798 0  0.319616 0.120473 0  0.359799 0.120256 0  0.39988 0.120136 0  0.439921 0.120073 0  0.479944 0.120039 0  0.519958 0.120022 0  0.5599690000000001 0.120012 0  0.599976 0.120007 0  0.639981 0.120004 0  0.679985 0.120002 0  0.719987 0.120002 0  0.7599900000000001 0.120001 0  0.799991 0.12 0  0.839993 0.12 0  0.879995 0.12 0  0.919996 0.12 0  0.959998 0.119999 0  1 0.119999 0  1.04 0.119999 0  1.08 0.119999 0  1.12 0.12 0  1.16 0.12 0  1.2 0.12 0  1.24 0.12 0  1.28 0.12 0  1.32 0.12 0  1.36 0.12 0  1.4 0.12 0  1.44 0.12 0  1.48 0.12 0  1.52 0.12 0  1.56 0.12 0  1.6 0.12 0  1.64 0.12 0  1.68 0.12 0  1.72 0.12 0  1.76 0.12 0  1.8 0.12 0  1.84 0.12 0  1.88 0.12 0  1.92 0.12 0  1.96 0.12 0  2 0.12 0  2.04 0.12 0  2.08 0.12 0  2.12 0.12 0  2.16 0.12 0  2.2 0.12 0  2.24 0.12 0  2.28 0.12 0  2.32 0.12 0  2.36 0.12 0  2.4 0.12 0  0.0400582 0.160177 0  0 0.16 0  0.0801954 0.160525 0  0.120857 0.161488 0  0.164645 0.164645 0  0.2 0.15 0  0.235355 0.164645 0  0.279119 0.161498 0  0.319759 0.16055 0  0.359874 0.160228 0  0.399906 0.160104 0  0.439925 0.160051 0  0.479941 0.160027 0  0.519954 0.160014 0  0.559964 0.160008 0  0.5999719999999999 0.160005 0  0.639978 0.160003 0  0.679982 0.160002 0  0.719985 0.160001 0  0.759988 0.160001 0  0.79999 0.16 0  0.839992 0.16 0  0.8799940000000001 0.16 0  0.919996 0.159999 0  0.959998 0.159999 0  1 0.159999 0  1.04 0.159999 0  1.08 0.159999 0  1.12 0.16 0  1.16 0.16 0  1.2 0.16 0  1.24 0.16 0  1.28 0.16 0  1.32 0.16 0  1.36 0.16 0  1.4 0.16 0  1.44 0.16 0  1.48 0.16 0  1.52 0.16 0  1.56 0.16 0  1.6 0.16 0  1.64 0.16 0  1.68 0.16 0  1.72 0.16 0  1.76 0.16 0  1.8 0.16 0  1.84 0.16 0  1.88 0.16 0  1.92 0.16 0  1.96 0.16 0  2 0.16 0  2.04 0.16 0  2.08 0.16 0  2.12 0.16 0  2.16 0.16 0  2.2 0.16 0  2.24 0.16 0  2.28 0.16 0  2.32 0.16 0  2.36 0.16 0  2.4 0.16 0  0.0399111 0.2 0  0 0.2 0  0.0795281 0.2 0  0.117811 0.2 0  0.15 0.2 0  0.282167 0.2 0  0.25 0.2 0  0.320429 0.2 0  0.36003 0.200001 0  0.399944 0.200001 0  0.439934 0.200001 0  0.479942 0.200001 0  0.519953 0.200001 0  0.559963 0.200001 0  0.59997 0.200001 0  0.639976 0.200001 0  0.6799809999999999 0.200001 0  0.719984 0.200001 0  0.759987 0.200001 0  0.799989 0.2 0  0.839991 0.2 0  0.879993 0.2 0  0.919996 0.199999 0  0.959998 0.199999 0  1 0.199999 0  1.04 0.199999 0  1.08 0.199999 0  1.12 0.2 0  1.16 0.2 0  1.2 0.2 0  1.24 0.2 0  1.28 0.2 0  1.32 0.2 0  1.36 0.2 0  1.4 0.2 0  1.44 0.2 0  1.48 0.2 0  1.52 0.2 0  1.56 0.2 0  1.6 0.2 0  1.64 0.2 0  1.68 0.2 0  1.72 0.2 0  1.76 0.2 0  1.8 0.2 0  1.84 0.2 0  1.88 0.2 0  1.92 0.2 0  1.96 0.2 0  2 0.2 0  2.04 0.2 0  2.08 0.2 0  2.12 0.2 0  2.16 0.2 0  2.2 0.2 0  2.24 0.2 0  2.28 0.2 0  2.32 0.2 0  2.36 0.2 0  2.4 0.2 0  0.0400582 0.239823 0  0 0.24 0  0.0801953 0.239475 0  0.120857 0.238513 0  0.164645 0.235355 0  0.279119 0.238502 0  0.235355 0.235355 0  0.319759 0.239451 0  0.359873 0.239774 0  0.399905 0.239898 0  0.439925 0.239951 0  0.479941 0.239976 0  0.519954 0.239988 0  0.559964 0.239994 0  0.5999719999999999 0.239997 0  0.639977 0.239999 0  0.679982 0.24 0  0.719985 0.24 0  0.759987 0.24 0  0.79999 0.24 0  0.839992 0.24 0  0.8799940000000001 0.24 0  0.919996 0.239999 0  0.959998 0.239999 0  1 0.239999 0  1.04 0.239999 0  1.08 0.239999 0  1.12 0.24 0  1.16 0.24 0  1.2 0.24 0  1.24 0.24 0  1.28 0.24 0  1.32 0.24 0  1.36 0.24 0  1.4 0.24 0  1.44 0.24 0  1.48 0.24 0  1.52 0.24 0  1.56 0.24 0  1.6 0.24 0  1.64 0.24 0  1.68 0.24 0  1.72 0.24 0  1.76 0.24 0  1.8 0.24 0  1.84 0.24 0  1.88 0.24 0  1.92 0.24 0  1.96 0.24 0  2 0.24 0  2.04 0.24 0  2.08 0.24 0  2.12 0.24 0  2.16 0.24 0  2.2 0.24 0  2.24 0.24 0  2.28 0.24 0  2.32 0.24 0  2.36 0.24 0  2.4 0.24 0  0.0401261 0.279816 0  0 0.28 0  0.0803376 0.279565 0  0.120778 0.27922 0  0.161485 0.279141 0  0.2 0.25 0  0.199996 0.282186 0  0.238503 0.279135 0  0.279195 0.279202 0  0.319616 0.279528 0  0.359799 0.279745 0  0.39988 0.279865 0  0.43992 0.279929 0  0.479944 0.279962 0  0.519958 0.27998 0  0.559968 0.27999 0  0.599976 0.279995 0  0.639981 0.279998 0  0.679984 0.279999 0  0.719987 0.28 0  0.759989 0.28 0  0.799991 0.28 0  0.839993 0.28 0  0.879995 0.28 0  0.919997 0.279999 0  0.959998 0.279999 0  1 0.279999 0  1.04 0.279999 0  1.08 0.28 0  1.12 0.28 0  1.16 0.28 0  1.2 0.28 0  1.24 0.28 0  1.28 0.28 0  1.32 0.28 0  1.36 0.28 0  1.4 0.28 0  1.44 0.28 0  1.48 0.28 0  1.52 0.28 0  1.56 0.28 0  1.6 0.28 0  1.64 0.28 0  1.68 0.28 0  1.72 0.28 0  1.76 0.28 0  1.8 0.28 0  1.84 0.28 0  1.88 0.28 0  1.92 0.28 0  1.96 0.28 0  2 0.28 0  2.04 0.28 0  2.08 0.28 0  2.12 0.28 0  2.16 0.28 0  2.2 0.28 0  2.24 0.28 0  2.28 0.28 0  2.32 0.28 0  2.36 0.28 0  2.4 0.28 0  0.0401086 0.319877 0  0 0.32 0  0.08025060000000001 0.319748 0  0.120433 0.319661 0  0.160522 0.319802 0  0.199995 0.320467 0  0.239464 0.319795 0  0.279543 0.319643 0  0.31971 0.319714 0  0.359828 0.319813 0  0.399895 0.319889 0  0.439933 0.319937 0  0.479955 0.319965 0  0.519968 0.319981 0  0.559976 0.31999 0  0.599982 0.319995 0  0.6399860000000001 0.319998 0  0.679989 0.319999 0  0.719991 0.32 0  0.759992 0.32 0  0.799994 0.32 0  0.839995 0.32 0  0.879996 0.32 0  0.919998 0.32 0  0.959999 0.32 0  1 0.32 0  1.04 0.32 0  1.08 0.32 0  1.12 0.32 0  1.16 0.32 0  1.2 0.32 0  1.24 0.32 0  1.28 0.32 0  1.32 0.32 0  1.36 0.32 0  1.4 0.32 0  1.44 0.32 0  1.48 0.32 0  1.52 0.32 0  1.56 0.32 0  1.6 0.32 0  1.64 0.32 0  1.68 0.32 0  1.72 0.32 0  1.76 0.32 0  1.8 0.32 0  1.84 0.32 0  1.88 0.32 0  1.92 0.32 0  1.96 0.32 0  2 0.32 0  2.04 0.32 0  2.08 0.32 0  2.12 0.32 0  2.16 0.32 0  2.2 0.32 0  2.24 0.32 0  2.28 0.32 0  2.32 0.32 0  2.36 0.32 0  2.4 0.32 0  0.0400579 0.359942 0  0 0.36 0  0.0801229 0.359891 0  0.120183 0.359873 0  0.160175 0.35994 0  0.199997 0.360086 0  0.239816 0.359936 0  0.279804 0.359862 0  0.319855 0.359871 0  0.359906 0.359906 0  0.399941 0.35994 0  0.439962 0.359964 0  0.479975 0.359979 0  0.5199820000000001 0.359989 0  0.559987 0.359994 0  0.59999 0.359997 0  0.639993 0.359998 0  0.679994 0.359999 0  0.7199950000000001 0.36 0  0.759996 0.36 0  0.799997 0.36 0  0.839997 0.36 0  0.8799979999999999 0.36 0  0
[...]
<PointData  Scalars="f_10391-1"> 
<DataArray  type="Float64"  Name="f_10391-1"  format="ascii">6.2056599856296331e-03  6.1614941555994743e-03  6.5851015536373828e-03  6.6718904518295189e-03  5.8992767478480623e-03  6.2908746944335264e-03  5.4553511313342098e-03  5.7993890797684369e-03  4.8626696767761074e-03  5.1336551489685918e-03  4.1877156160548667e-03  4.3815226967263889e-03  3.5153889790502479e-03  3.6556403845697961e-03  2.8992283875926479e-03  3.0078531204039672e-03  2.3512215515219506e-03  2.4371771281618366e-03  1.8709613431776198e-03  1.9375252791512968e-03  1.4575008584089637e-03  1.5071852928179820e-03  1.1099376060083013e-03  1.1456517498666691e-03  8.2575511097306804e-04  8.5055085416188645e-04  6.0007699794606103e-04  6.1676122277287096e-04  4.2601189620882364e-04  4.3692127487212907e-04  2.9552796416632297e-04  3.0246372707758542e-04  2.0037703310422052e-04  2.0466318690235281e-04  1.3282104725324085e-04  1.3539630869894152e-04  8.6085866172860352e-05  8.7586181117743997e-05  5.4562568008383028e-05  5.5407500577422951e-05  3.3820798339858967e-05  3.4278647826662173e-05  2.0502376882695643e-05  2.0739671545408006e-05  1.2154632535764692e-05  1.2270638014890678e-05  7.0463461791899773e-06  7.0987451388439857e-06  3.9941225939007616e-06  4.0150690781177195e-06  2.2133591295800767e-06  2.2198078806960566e-06  1.1988876539566052e-06  1.1994292672704295e-06  6.3461966010032320e-07  6.3323663548520720e-07  3.2821466526258570e-07  3.2657211716928832e-07  1.6580668160867052e-07  1.6447191676226364e-07  8.1794668788050601e-08  8.0866797340925848e-08  3.9390828490861353e-08  3.8803300086073149e-08  1.8512678498676154e-08  1.8164693979246881e-08  8.4877327249635255e-09  8.2923057780844905e-09  3.7948360396811833e-09  3.6899570239233903e-09  1.6538221432600021e-09  1.5997754381295529e-09  7.0222651969871701e-10  6.7539941100766142e-10  2.9035988795044677e-10  2.7750727722320663e-10  1.1684826015941631e-10  1.1089700199133594e-10  4.5736431551765738e-11  4.3070790708847847e-11  1.7400143827039641e-11  1.6244571671767459e-11  6.4291117022427678e-12  5.9441634350619715e-12  2.3049762650422588e-12  2.1079621144912494e-12  8.0103430442359221e-13  7.2356588032183566e-13  2.6951520729393905e-13  2.4004293939322541e-13  8.7669305699523492e-14  7.6827046954267481e-14  2.7523660296616522e-14  2.3669652470379511e-14  8.3225778517146878e-15  7.0001637567975291e-15  2.4175460580445486e-15  1.9800854179368193e-15  6.7236674513694834e-16  5.3306942519527493e-16  1.7824565715437408e-16  1.3563597463176831e-16  4.4762811590438684e-17  3.2274180898139284e-17  1.0551439334062116e-17  7.0561604779842783e-18  2.3003550449402241e-18  1.3705278091453337e-18  4.5161609104193561e-19  2.1804224347657430e-19  7.5299094070394051e-20  2.0441411448255827e-20  8.8403565436957456e-21  -3.0111718581700831e-21  -1.1599341095383569e-22  -2.4007530524367743e-21  -4.9522838314339718e-22  -8.6170891265018384e-22  -2.0777533885247478e-22  -2.4494714665722257e-22  -1.2013478578902950e-22  -1.0750488839081728e-22  7.8801744761084497e-03  7.9850910598823696e-03  7.5269948790467221e-03  6.9039243384230470e-03  5.9892565789515803e-03  4.9570567125628885e-03  4.0644942067973866e-03  3.3322515987065414e-03  2.6990134810561139e-03  2.1419553473808880e-03  1.6602453345256267e-03  1.2560340876663014e-03  9.2767201542435238e-04  6.6920930819168792e-04  4.7174310191572412e-04  3.2507696051883855e-04  2.1904400864711772e-04  1.4435223732045714e-04  9.3049559872187494e-05  5.8671339190835522e-05  3.6186306579423817e-05  2.1830020939643024e-05  1.2879696110036323e-05  7.4308344228935052e-06  4.1914823451867439e-06  2.3111009418220935e-06  1.2453481078885086e-06  6.5563694532708410e-07  3.3714163630542856e-07  1.6927820213687164e-07  8.2962373419343779e-08  3.9672684679126459e-08  1.8503641884764936e-08  8.4137092230927387e-09  3.7279842961162856e-09  1.6087491545345321e-09  6.7573755000957992e-10  2.7609783405829001e-10  1.0965533663853093e-10  4.2298477760898079e-11  1.5832334173111902e-11  5.7441619791212727e-12  2.0175720060328752e-12  6.8503356926613940e-13  2.2444226902400398e-13  7.0804520943414350e-14  2.1448148514145126e-14  6.2165030203895760e-15  1.7157350797227856e-15  4.4788132080280388e-16  1.0946007614561712e-16  2.4628207306268471e-17  4.9427379434449507e-18  8.2157543349203336e-19  8.5531401669127576e-20  -8.7180653177007291e-21  -8.6404602309945493e-21  -3.2643397596396846e-21  -9.2589463777614472e-22  -2.2163742979327646e-22  -8.1722055540366237e-23  1.0171398944101557e-02  1.0270526465620130e-02  9.7820054353705884e-03  8.9785595918482983e-03  7.5412010813209534e-03  5.8081887679196200e-03  4.6764747863882279e-03  3.8658739108464483e-03  3.1434924183471966e-03  2.4877413516336887e-03  1.9157416469898459e-03  1.4378658319127370e-03  1.0534202026987044e-03  7.5413671465254350e-04  5.2789720945944007e-04  3.6149037854842504e-04  2.4221090639312570e-04  1.5881500079912832e-04  1.0190913997802615e-04  6.3992324244843804e-05  3.9320235066787985e-05  2.3637870266600690e-05  1.3900725567346689e-05  7.9951167908296697e-06  4.4963530808092188e-06  2.4719711496302684e-06  1.3282105008772130e-06  6.9724980924866952e-07  3.5749339943484761e-07  1.7895834048085621e-07  8.7433396174687952e-08  4.1674203363126739e-08  1.9370024954271559e-08  8.7752136103730991e-09  3.8727767205066488e-09  1.6640815710571869e-09  6.9572552899129179e-10  2.8281654641432983e-10  1.1169392602818916e-10  4.2817375250548397e-11  1.5915737716274549e-11  5.7296487708717815e-12  1.9948459105353699e-12  6.7055661258575687e-13  2.1717455867189898e-13  6.7594159493308785e-14  2.0150968102863575e-14  5.7286454830845484e-15  1.5435048475423159e-15  3.9058917007986897e-16  9.1488799131215704e-17  1.9321908704488741e-17  3.4745900459481682e-18  4.4411795361041055e-19  -3.2935895681683497e-21  -2.7297590047730248e-20  -1.1864925532290001e-20  -3.6262426685267019e-21  -8.9825289830674499e-22  -1.8529780582850769e-22  -5.5824308559282085e-23  1.3593556403152785e-02  1.3624230796708388e-02  1.3305852254942614e-02  1.2453428101520463e-02  1.0404178502124361e-02  6.4760060490754202e-03  5.3028015260237786e-03  4.6442161930995360e-03  3.7978084459579348e-03  2.9810826823062739e-03  2.2691345132555179e-03  1.6834243320537695e-03  1.2203276804306753e-03  8.6548508925611588e-04  6.0092126542268451e-04  4.0857106252178174e-04  2.7205068470244744e-04  1.7740177582635047e-04  1.1327868738653793e-04  7.0820123694859154e-05  4.3342087648768200e-05  2.5960614849419176e-05  1.5214931874304332e-05  8.7229420281574934e-06  4.8907496177346794e-06  2.6808770748442467e-06  1.4362926453972868e-06  7.5181850546611561e-07  3.8435317120859032e-07  1.9183391097768827e-07  9.3436941482233025e-08  4.4393233565429225e-08  2.0564167875917838e-08  9.2827185474050301e-09  4.0809529179944781e-09  1.7462176966876308e-09  7.2674862758868962e-10  2.9395595060531499e-10  1.1545489692960322e-10  4.3988676168542424e-11  1.6239296092487770e-11  5.8010310696777505e-12  2.0019707328122183e-12  6.6616218223388066e-13  2.1321868935084073e-13  6.5442771915510059e-14  1.9183916759677881e-14  5.3413286991763564e-15  1.4012586993082607e-15  3.4207477597563416e-16  7.6044872679201128e-17  1.4731729747113899e-17  2.2058149687075725e-18  1.2094995807947170e-19  -7.7775933460589833e-20  -4.2245545408104427e-20  -1.4224099317519995e-20  -3.7998246467132347e-21  -8.3539524527146565e-22  -1.4441214344966413e-22  -3.0111855387888716e-23  1.8182988876549448e-02  1.7999336932231689e-02  1.8272207682549089e-02  1.7589112357861564e-02  1.6769908586214591e-02  5.8800422726590883e-03  6.6444305713730858e-03  4.7138401607362433e-03  3.6186809665839192e-03  2.7037286664082171e-03  1.9761202050565486e-03  1.4152892535047293e-03  9.9380471334989460e-04  6.8427046184656767e-04  4.6194772476193904e-04  3.0571123730719594e-04  1.9828423128334058e-04  1.2601493367647682e-04  7.8449351511540192e-05  4.7827158781166134e-05  2.8546216391406283e-05  1.6675493014865625e-05  9.5306025977491404e-06  5.3277553720504920e-06  2.9120150567677835e-06  1.5556967208599444e-06  8.1200750702022157e-07  4.1392843845541351e-07  2.0598436265331915e-07  1.0002100160488129e-07  4.7368056114391537e-08  2.1867065672619395e-08  9.8346741473577829e-09  4.3065056818637050e-09  1.8348024342986529e-09  7.6001705970961624e-10  3.0581388880923247e-10  1.1941835132829852e-10  4.5204605693944394e-11  1.6566490557987346e-11  5.8688158434974553e-12  2.0060553636944139e-12  6.6012198120973972e-13  2.0852261363699108e-13  6.2996142830004290e-14  1.8110017829480614e-14  4.9187251637069878e-15  1.2484445656907664e-15  2.9075258623734018e-16  5.9976539182115285e-17  1.0046978554472805e-17  9.4132977217571828e-19  -1.9107349617993220e-19  -1.4639195501984488e-19  -5.4923970398956799e-20  -1.5845185451042029e-20  -3.7643556723162993e-21  -7.2096355661124637e-22  -9.2693399624506534e-23  -9.8942549301966310e-25  2.3854679954441724e-02  2.2995232160514391e-02  2.4982812829341856e-02  2.3633736708245444e-02  2.1134318587383776e-02  7.8495277404778043e-03  1.0960720595701568e-02  5.8581698695060296e-03  4.3429116535877010e-03  3.1757771594086372e-03  2.2862326304420541e-03  1.6186472261328618e-03  1.1262143438995746e-03  7.6960046052960366e-04  5.1624539813514706e-04  3.3978128101880333e-04  2.1932998268728272e-04  1.3880009065062705e-04  8.6080851482841283e-05  5.2297037061629011e-05  3.1113764308802187e-05  1.8120412183967475e-05  1.0326691336404511e-05  5.7566332878078469e-06  3.1377619784216312e-06  1.6716837868065993e-06  8.7011351173684924e-07  4.4227709899641745e-07  2.1943574189577797e-07  1.0621885777111605e-07  5.0135888392359945e-08  2.3062291073927403e-08  1.0332262732142548e-08  4.5054143141064389e-09  1.9107169600033690e-09  7.8744172460320565e-10  3.1505924371892573e-10  1.2225048229917406e-10  4.5946473931719744e-11  1.6701681797348000e-11  5.8615446695295068e-12  1.9818725500358997e-12  6.4384824664445372e-13  2.0027581394670434e-13  5.9373446027454519e-14  1.6666332134798400e-14  4.3866540072908659e-15  1.0655224128133377e-15  2.3191719469382370e-16  4.2291543840195267e-17  5.1046501235535728e-18  -3.2911855230122010e-19  -4.8522839533152863e-19  -2.0501828221358592e-19  -6.3760729820949562e-20  -1.6243997544510305e-20  -3.3926918060588871e-21  -5.2654635395013463e-22  -2.4986188138216631e-23  3.2724049728660068e-23  2.8938710042235416e-02  2.7250070389973697e-02  3.2459999713986977e-02  3.0713832750323026e-02  2.4036909730436134e-02  1.7350601541135248e-02  1.8345817797561111e-02  1.3230930424078151e-02  9.5082339493856496e-03  6.9081234707401712e-03  5.0172311016064954e-03  3.6152120773582761e-03  2.5738873601282991e-03  1.8063932509660039e-03  1.2478807710654548e-03  8.4763276823021021e-04  5.6567001238701903e-04  3.7064690967268974e-04  2.3831331085901673e-04  1.5027874666070237e-04  9.2898262140852744e-05  5.6270491972847526e-05  3.3383336201503590e-05  1.9389698699017741e-05  1.1021021359568013e-05  6.1278179259705724e-06  3.3313685527811535e-06  1.7701131110247018e-06  9.1881828996725144e-07  4.6569327860544583e-07  2.3035375628227186e-07  1.1114348797142937e-07  5.2277975748126652e-08  2.3957004430382237e-08  1.0688934360831605e-08  4.6398560698198498e-09  1.9578851137044797e-09  8.0238502585820808e-10  3.1903373471216159e-10  1.2292046284712856e-10  4.5828072693911402e-11  1.6505453992328284e-11  5.7309019107737646e-12  1.9134268694201898e-12  6.1231849286710576e-13  1.8699915959251935e-13  5.4173895838243595e-14  1.4756721296501382e-14  3.7266563812830108e-15  8.5079373515711652e-16  1.6631588087967015e-16  2.3578970878188479e-17  1.7318436415929817e-19  -1.5065722235834309e-18  -7.2977955731840559e-19  -2.4462417173318492e-19  -6.6486950955903255e-20  -1.4933747970715324e-20  -2.6047744694566391e-21  -2.4694990072474397e-22  5.5420994362056924e-23  6.7626053693497071e-23  3.0548429213566944e-02  2.9129863440158419e-02  3.4091502706813971e-02  3.2807456616111202e-02  2.5690064715079380e-02  1.9227583195782945e-02  1.4262968583028782e-02  1.0462515017150396e-02  7.6287953980213293e-03  5.5215424473160279e-03  3.9568919919660984e-03  2.8012450274313549e-03  1.9556794141985813e-03  1.3446636088626500e-03  9.0957033879430181e-04  6.0475752641743572e-04  3.9494000893607734e-04  2.5316404300794454e-04  1.5920046601071842e-04  9.8158359021795045e-05  5.9309452672299273e-05  3.5102455029164979e-05  2.0340470772390829e-05  1.1534225583250652e-05  6.3978250345693780e-06  3.4696403859142540e-06  1.8388470172331128e-06  9.5190795215115291e-07  4.8107189831611498e-07  2.3722250171460723e-07  1.1407312692773233e-07  5.3459512517195750e-08  2.4400077243067011e-08  1.0838397112593987e-08  4.6816191206174730e-09  1.9646816170088112e-09  8.0021987934364442e-10  3.1596416440823241e-10  1.2077684797100071e-10  4.4621368443297818e-11  1.5902462469028165e-11  5.4537532396820711e-12  1.7943105381130638e-12  5.6404012087276614e-13  1.6846738069284033e-13  4.7425209060118115e-14  1.2425418370136584e-14  2.9641327598151484e-15  6.1553808587191454e-16  9.8293146478276850e-17  5.3447007664748806e-18  -4.2718195420896447e-18  -2.4542205230264527e-18  -8.8932694917826988e-19  -2.5723947390744598e-19  -6.1678795853527757e-20  -1.1785202889746085e-20  -1.4402083697950966e-21  8.8843385959991405e-23  1.3656195783605593e-22  9.6733864613733265e-23  2.9695221135131553e-02  2.9155334939914547e-02  3.0784172848793420e-02  2.9506863094522422e-02  2.4747151274910513e-02  1.9271997332862695e-02  1.4652361667484837e-02  1.0923337158476107e-02  8.0241294799079117e-03  5.8189862380390563e-03  4.1663786705381347e-03  2.9433585168208124e-03  2.0496996778127663e-03  1.4056770453468061e-03  9.4847133845947398e-04  6.2914628426330617e-04  4.0995648707883815e-04  2.6224211249055776e-04  1.6457769779741743e-04  1.0127388009928608e-04  6.1073176099344596e-05  3.6075707737333815e-05  2.0862358126090043e-05  1.1805626434509966e-05  6.5340045932353410e-06  3.5352995880743594e-06  1.8689732636969971e-06  9.6489857609082182e-07  4.8620998566748738e-07  2.3898920408237641e-07  1.1451880186306804e-07  5.3460203290626975e-08  2.4295470007517730e-08  1.0740260990876205e-08  4.6143853254623650e-09  1.9248102908461660e-09  7.7864696167293225e-10  3.0506751575271100e-10  1.1557788902651447e-10  4.2262984777359784e-11  1.4881537010913798e-11  5.0311721944465597e-12  1.6269326406413381e-12  5.0061155558770461e-13  1.4549408143546105e-13  3.9487968739619997e-14  9.8175044527486287e-15  2.1530013277629520e-15  3.7839020460552412e-16  3.3841300615353703e-17  -1.0627389018225114e-17  -7.7447905538912976e-18  -3.0543551790322333e-18  -9.4001325118281651e-19  -2.3962308457334441e-19  -4.9517739908065975e-20  -7.1430243840980544e-21  -6.0891204386852676e-23  4.2510359037144673e-22  2.0208861358613612e-22  1.1167936918289319e-22  2.9236873391594545e-02  2.9041516736849984e-02  2.9443329377596889e-02  2.7887061146173946e-02  2.3944062650707212e-02  1.9130547481926271e-02  1.4713059554442744e-02  1.1040639626282706e-02  8.1381060740244246e-03  5.9098075914771507e-03  4.2320475952186158e-03  2.9881878387104932e-03  2.0791405362482408e-03  1.4244071747355970e-03  9.6006080005214107e-04  6.3610932278182009e-04  4.1401150580078292e-04  2.6451237716740387e-04  1.6579081315542838e-04  1.0188325501686315e-04  6.1352638635102786e-05  3.6184450293085457e-05  2.0890275975826811e-05  1.1799898512361410e-05  6.5178083380408169e-06  3.5187469135854676e-06  1.8556874344036917e-06  9.5545597831650527e-07  4.8001231387985107e-07  2.3515882990676755e-07  1.1226631138571379e-07  5.2192107592165312e-08  2.3609431249094250e-08  1.0382751620603014e-08  4.4346579529249568e-09  1.8375719131200247e-09  7.3774453491732931e-10  2.8654226486523556e-10  1.0747492615774101e-10  3.8841977475495103e-11  1.3488597275968188e-11  4.4848166712577270e-12  1.4208165854232520e-12  4.2597385414320390e-13  1.1962111687921143e-13  3.0933315019852868e-14  7.1331303842201344e-15  1.3594117462133170e-15  1.5984292161207931e-16  -2.1152906793084326e-17  -2.2800250696106347e-17  -9.8958469519322425e-18  -3.2450320365489348e-18  -8.7750211819357645e-19  -1.9456891871901126e-19  -3.1840611190659925e-20  -1.7468361860444130e-21  1.2946630646500760e-21  6.9728373848742681e-22  2.3767461028737464e-22  1.0235620750570734e-22  </DataArray> 
</PointData> 
</Piece>
</UnstructuredGrid>
</VTKFile>