<?xml version="1.0"?>
<VTKFile type="UnstructuredGrid"  version="0.1"  >
<UnstructuredGrid>
<Piece  NumberOfPoints="670" NumberOfCells="1192">
<Points>
<DataArray  type="Float64"  NumberOfComponents="3"  format="ascii">0 0 0  0.04 -1.31357e-10 0  0.0400579 0.0400582 0  0 0.04 0  0.08 -2.62713e-10 0  0.080123 0.0401093 0  0.12 -3.9407e-10 0  0.120183 0.040127 0  0.16 -5.25427e-10 0  0.160176 0.0400597 0  0.2 -6.56784e-10 0  0.199997 0.0399142 0  0.24 -7.8814e-10 0  0.239816 0.0400642 0  0.28 -9.19497e-10 0  0.279804 0.0401377 0  0.32 -1.05085e-09 0  0.319855 0.0401297 0  0.36 -1.18221e-09 0  0.359906 0.0400945 0  0.4 -1.31357e-09 0  0.399941 0.0400609 0  0.44 -1.44492e-09 0  0.439962 0.0400367 0  0.48 -1.57628e-09 0  0.479975 0.0400214 0  0.52 -1.70764e-09 0  0.519983 0.0400122 0  0.5600000000000001 -1.83899e-09 0  0.559987 0.0400069 0  0.6 -1.97035e-09 0  0.59999 0.040004 0  0.64 -2.10171e-09 0  0.639993 0.0400023 0  0.68 -2.23306e-09 0  0.679994 0.0400013 0  0.72 -2.36442e-09 0  0.7199950000000001 0.0400008 0  0.76 -2.49578e-09 0  0.759996 0.0400005 0  0.8 -2.62713e-09 0  0.799997 0.0400002 0  0.84 -2.75849e-09 0  0.839997 0.0400001 0  0.88 -2.88985e-09 0  0.8799979999999999 0.04 0  0.92 -3.0212e-09 0  0.919999 0.0399999 0  0.96 -3.15256e-09 0  0.959999 0.0399998 0  1 -3.28392e-09 0  1 0.0399998 0  1.04 -3.41527e-09 0  1.04 0.0399998 0  1.08 -3.54663e-09 0  1.08 0.0399998 0  1.12 -3.67799e-09 0  1.12 0.0399998 0  1.16 -3.80934e-09 0  1.16 0.0399999 0  1.2 -3.9407e-09 0  1.2 0.04 0  1.24 -4.07206e-09 0  1.24 0.04 0  1.28 -4.20341e-09 0  1.28 0.0400001 0  1.32 -4.33477e-09 0  1.32 0.0400001 0  1.36 -4.46613e-09 0  1.36 0.04 0  1.4 -4.59748e-09 0  1.4 0.04 0  1.44 -4.72884e-09 0  1.44 0.04 0  1.48 -4.8602e-09 0  1.48 0.04 0  1.52 -4.99156e-09 0  1.52 0.04 0  1.56 -5.12291e-09 0  1.56 0.04 0  1.6 -5.25427e-09 0  1.6 0.0400001 0  1.64 -5.38563e-09 0  1.64 0.0400001 0  1.68 -5.51698e-09 0  1.68 0.04 0  1.72 -5.64834e-09 0  1.72 0.04 0  1.76 -5.7797e-09 0  1.76 0.04 0  1.8 -5.91105e-09 0  1.8 0.04 0  1.84 -6.04241e-09 0  1.84 0.04 0  1.88 -6.17377e-09 0  1.88 0.0400001 0  1.92 -6.30512e-09 0  1.92 0.0400001 0  1.96 -6.43648e-09 0  1.96 0.0400001 0  2 -6.56784e-09 0  2 0.0400001 0  2.04 -6.69919e-09 0  2.04 0.0400001 0  2.08 -6.83055e-09 0  2.08 0.04 0  2.12 -6.96191e-09 0  2.12 0.04 0  2.16 -7.09326e-09 0  2.16 0.0400001 0  2.2 -7.22462e-09 0  2.2 0.04 0  2.24 -7.35598e-09 0  2.24 0.04 0  2.28 -7.48733e-09 0  2.28 0.0399999 0  2.32 -7.618690000000001e-09 0  2.32 0.04 0  2.36 -7.750049999999999e-09 0  2.36 0.04 0  2.4 -7.8814e-09 0  2.4 0.04 0  0.0401088 0.0801235 0  0 0.08 0  0.0802509 0.0802518 0  0.120434 0.0803392 0  0.160522 0.0801977 0  0.199995 0.0795328 0  0.239464 0.0802049 0  0.279544 0.08035689999999999 0  0.319711 0.0802867 0  0.359828 0.08018740000000001 0  0.399896 0.0801123 0  0.439933 0.0800646 0  0.479955 0.0800365 0  0.519968 0.08002049999999999 0  0.559976 0.0800116 0  0.599982 0.0800066 0  0.6399860000000001 0.0800039 0  0.679989 0.0800023 0  0.719991 0.0800014 0  0.759992 0.0800008 0  0.799994 0.0800004 0  0.839995 0.08000019999999999 0  0.879996 0.0799999 0  0.919997 0.07999970000000001 0  0.959999 0.0799996 0  1 0.0799995 0  1.04 0.0799995 0  1.08 0.0799996 0  1.12 0.07999970000000001 0  1.16 0.0799998 0  1.2 0.08 0  1.24 0.0800001 0  1.28 0.0800001 0  1.32 0.0800001 0  1.36 0.08 0  1.4 0.0799999 0  1.44 0.0799999 0  1.48 0.0799999 0  1.52 0.0799999 0  1.56 0.08 0  1.6 0.0800001 0  1.64 0.0800001 0  1.68 0.08 0  1.72 0.0799999 0  1.76 0.0799999 0  1.8 0.0799999 0  1.84 0.0799999 0  1.88 0.08 0  1.92 0.0800001 0  1.96 0.0800001 0  2 0.0800001 0  2.04 0.08 0  2.08 0.0799999 0  2.12 0.0799999 0  2.16 0.08 0  2.2 0.08 0  2.24 0.0799999 0  2.28 0.0799998 0  2.32 0.0799999 0  2.36 0.0799999 0  2.4 0.08 0  0.0401262 0.120184 0  0 0.12 0  0.0803378 0.120435 0  0.120779 0.12078 0  0.161485 0.120859 0  0.199996 0.117814 0  0.238503 0.120866 0  0.279195 0.120798 0  0.319616 0.120473 0  0.359799 0.120256 0  0.39988 0.120136 0  0.439921 0.120073 0  0.479944 0.120039 0  0.519958 0.120022 0  0.5599690000000001 0.120012 0  0.599976 0.120007 0  0.639981 0.120004 0  0.679985 0.120002 0  0.719987 0.120002 0  0.7599900000000001 0.120001 0  0.799991 0.12 0  0.839993 0.12 0  0.879995 0.12 0  0.919996 0.12 0  0.959998 0.119999 0  1 0.119999 0  1.04 0.119999 0  1.08 0.119999 0  1.12 0.12 0  1.16 0.12 0  1.2 0.12 0  1.24 0.12 0  1.28 0.12 0  1.32 0.12 0  1.36 0.12 0  1.4 0.12 0  1.44 0.12 0  1.48 0.12 0  1.52 0.12 0  1.56 0.12 0  1.6 0.12 0  1.64 0.12 0  1.68 0.12 0  1.72 0.12 0  1.76 0.12 0  1.8 0.12 0  1.84 0.12 0  1.88 0.12 0  1.92 0.12 0  1.96 0.12 0  2 0.12 0  2.04 0.12 0  2.08 0.12 0  2.12 0.12 0  2.16 0.12 0  2.2 0.12 0  2.24 0.12 0  2.28 0.12 0  2.32 0.12 0  2.36 0.12 0  2.4 0.12 0  0.0400582 0.160177 0  0 0.16 0  0.0801954 0.160525 0  0.120857 0.161488 0  0.164645 0.164645 0  0.2 0.15 0  0.235355 0.164645 0  0.279119 0.161498 0  0.319759 0.16055 0  0.359874 0.160228 0  0.399906 0.160104 0  0.439925 0.160051 0  0.479941 0.160027 0  0.519954 0.160014 0  0.559964 0.160008 0  0.5999719999999999 0.160005 0  0.639978 0.160003 0  0.679982 0.160002 0  0.719985 0.160001 0  0.759988 0.160001 0  0.79999 0.16 0  0.839992 0.16 0  0.8799940000000001 0.16 0  0.919996 0.159999 0  0.959998 0.159999 0  1 0.159999 0  1.04 0.159999 0  1.08 0.159999 0  1.12 0.16 0  1.16 0.16 0  1.2 0.16 0  1.24 0.16 0  1.28 0.16 0  1.32 0.16 0  1.36 0.16 0  1.4 0.16 0  1.44 0.16 0  1.48 0.16 0  1.52 0.16 0  1.56 0.16 0  1.6 0.16 0  1.64 0.16 0  1.68 0.16 0  1.72 0.16 0  1.76 0.16 0  1.8 0.16 0  1.84 0.16 0  1.88 0.16 0  1.92 0.16 0  1.96 0.16 0  2 0.16 0  2.04 0.16 0  2.08 0.16 0  2.12 0.16 0  2.16 0.16 0  2.2 0.16 0  2.24 0.16 0  2.28 0.16 0  2.32 0.16 0  2.36 0.16 0  2.4 0.16 0  0.0399111 0.2 0  0 0.2 0  0.0795281 0.2 0  0.117811 0.2 0  0.15 0.2 0  0.282167 0.2 0  0.25 0.2 0  0.320429 0.2 0  0.36003 0.200001 0  0.399944 0.200001 0  0.439934 0.200001 0  0.479942 0.200001 0  0.519953 0.200001 0  0.559963 0.200001 0  0.59997 0.200001 0  0.639976 0.200001 0  0.6799809999999999 0.200001 0  0.719984 0.200001 0  0.759987 0.200001 0  0.799989 0.2 0  0.839991 0.2 0  0.879993 0.2 0  0.919996 0.199999 0  0.959998 0.199999 0  1 0.199999 0  1.04 0.199999 0  1.08 0.199999 0  1.12 0.2 0  1.16 0.2 0  1.2 0.2 0  1.24 0.2 0  1.28 0.2 0  1.32 0.2 0  1.36 0.2 0  1.4 0.2 0  1.44 0.2 0  1.48 0.2 0  1.52 0.2 0  1.56 0.2 0  1.6 0.2 0  1.64 0.2 0  1.68 0.2 0  1.72 0.2 0  1.76 0.2 0  1.8 0.2 0  1.84 0.2 0  1.88 0.2 0  1.92 0.2 0  1.96 0.2 0  2 0.2 0  2.04 0.2 0  2.08 0.2 0  2.12 0.2 0  2.16 0.2 0  2.2 0.2 0  2.24 0.2 0  2.28 0.2 0  2.32 0.2 0  2.36 0.2 0  2.4 0.2 0  0.0400582 0.239823 0  0 0.24 0  0.0801953 0.239475 0  0.120857 0.238513 0  0.164645 0.235355 0  0.279119 0.238502 0  0.235355 0.235355 0  0.319759 0.239451 0  0.359873 0.239774 0  0.399905 0.239898 0  0.439925 0.239951 0  0.479941 0.239976 0  0.519954 0.239988 0  0.559964 0.239994 0  0.5999719999999999 0.239997 0  0.639977 0.239999 0  0.679982 0.24 0  0.719985 0.24 0  0.759987 0.24 0  0.79999 0.24 0  0.839992 0.24 0  0.8799940000000001 0.24 0  0.919996 0.239999 0  0.959998 0.239999 0  1 0.239999 0  1.04 0.239999 0  1.08 0.239999 0  1.12 0.24 0  1.16 0.24 0  1.2 0.24 0  1.24 0.24 0  1.28 0.24 0  1.32 0.24 0  1.36 0.24 0  1.4 0.24 0  1.44 0.24 0  1.48 0.24 0  1.52 0.24 0  1.56 0.24 0  1.6 0.24 0  1.64 0.24 0  1.68 0.24 0  1.72 0.24 0  1.76 0.24 0  1.8 0.24 0  1.84 0.24 0  1.88 0.24 0  1.92 0.24 0  1.96 0.24 0  2 0.24 0  2.04 0.24 0  2.08 0.24 0  2.12 0.24 0  2.16 0.24 0  2.2 0.24 0  2.24 0.24 0  2.28 0.24 0  2.32 0.24 0  2.36 0.24 0  2.4 0.24 0  0.0401261 0.279816 0  0 0.28 0  0.0803376 0.279565 0  0.120778 0.27922 0  0.161485 0.279141 0  0.2 0.25 0  0.199996 0.282186 0  0.238503 0.279135 0  0.279195 0.279202 0  0.319616 0.279528 0  0.359799 0.279745 0  0.39988 0.279865 0  0.43992 0.279929 0  0.479944 0.279962 0  0.519958 0.27998 0  0.559968 0.27999 0  0.599976 0.279995 0  0.639981 0.279998 0  0.679984 0.279999 0  0.719987 0.28 0  0.759989 0.28 0  0.799991 0.28 0  0.839993 0.28 0  0.879995 0.28 0  0.919997 0.279999 0  0.959998 0.279999 0  1 0.279999 0  1.04 0.279999 0  1.08 0.28 0  1.12 0.28 0  1.16 0.28 0  1.2 0.28 0  1.24 0.28 0  1.28 0.28 0  1.32 0.28 0  1.36 0.28 0  1.4 0.28 0  1.44 0.28 0  1.48 0.28 0  1.52 0.28 0  1.56 0.28 0  1.6 0.28 0  1.64 0.28 0  1.68 0.28 0  1.72 0.28 0  1.76 0.28 0  1.8 0.28 0  1.84 0.28 0  1.88 0.28 0  1.92 0.28 0  1.96 0.28 0  2 0.28 0  2.04 0.28 0  2.08 0.28 0  2.12 0.28 0  2.16 0.28 0  2.2 0.28 0  2.24 0.28 0  2.28 0.28 0  2.32 0.28 0  2.36 0.28 0  2.4 0.28 0  0.0401086 0.319877 0  0 0.32 0  0.08025060000000001 0.319748 0  0.120433 0.319661 0  0.160522 0.319802 0  0.199995 0.320467 0  0.239464 0.319795 0  0.279543 0.319643 0  0.31971 0.319714 0  0.359828 0.319813 0  0.399895 0.319889 0  0.439933 0.319937 0  0.479955 0.319965 0  0.519968 0.319981 0  0.559976 0.31999 0  0.599982 0.319995 0  0.6399860000000001 0.319998 0  0.679989 0.319999 0  0.719991 0.32 0  0.759992 0.32 0  0.799994 0.32 0  0.839995 0.32 0  0.879996 0.32 0  0.919998 0.32 0  0.959999 0.32 0  1 0.32 0  1.04 0.32 0  1.08 0.32 0  1.12 0.32 0  1.16 0.32 0  1.2 0.32 0  1.24 0.32 0  1.28 0.32 0  1.32 0.32 0  1.36 0.32 0  1.4 0.32 0  1.44 0.32 0  1.48 0.32 0  1.52 0.32 0  1.56 0.32 0  1.6 0.32 0  1.64 0.32 0  1.68 0.32 0  1.72 0.32 0  1.76 0.32 0  1.8 0.32 0  1.84 0.32 0  1.88 0.32 0  1.92 0.32 0  1.96 0.32 0  2 0.32 0  2.04 0.32 0  2.08 0.32 0  2.12 0.32 0  2.16 0.32 0  2.2 0.32 0  2.24 0.32 0  2.28 0.32 0  2.32 0.32 0  2.36 0.32 0  2.4 0.32 0  0.0400579 0.359942 0  0 0.36 0  0.0801229 0.359891 0  0.120183 0.359873 0  0.160175 0.35994 0  0.199997 0.360086 0  0.239816 0.359936 0  0.279804 0.359862 0  0.319855 0.359871 0  0.359906 0.359906 0  0.399941 0.35994 0  0.439962 0.359964 0  0.479975 0.359979 0  0.5199820000000001 0.359989 0  0.559987 0.359994 0  0.59999 0.359997 0  0.639993 0.359998 0  0.679994 0.359999 0  0.7199950000000001 0.36 0  0.759996 0.36 0  0.799997 0.36 0  0.839997 0.36 0  0.8799979999999999 0.36 0  0
[...]
<PointData  Scalars="f_10391-1"> 
<DataArray  type="Float64"  Name="f_10391-1"  format="ascii">7.2562348544959500e-03  7.2068854794100643e-03  7.6476920518301949e-03  7.7413876471112992e-03  6.9268484876602926e-03  7.3340454888178325e-03  6.4560786699761298e-03  6.8140596728290467e-03  5.8282771363404951e-03  6.1113051924534525e-03  5.1095879657164231e-03  5.3137949895303840e-03  4.3851391012142589e-03  4.5353653379277149e-03  3.7081720641033598e-03  3.8268660007084051e-03  3.0903408625954512e-03  3.1861252312066200e-03  2.5324024669063031e-03  2.6080467389037942e-03  2.0361551056634576e-03  2.0938205662408295e-03  1.6043235344536297e-03  1.6467683229498353e-03  1.2381052289073917e-03  1.2683788846965913e-03  9.3582356135657593e-04  9.5682687918176627e-04  6.9293169535339350e-04  7.0714844166875224e-04  5.0277758705876839e-04  5.1217311827404051e-04  3.5758894310408110e-04  3.6365118344057517e-04  2.4936506216250353e-04  2.5318656918960032e-04  1.7054220991604525e-04  1.7289041890964908e-04  1.1440689344982929e-04  1.1581016384609480e-04  7.5292931800479424e-05  7.6105689834025329e-05  4.8615530517942173e-05  4.9070040337327604e-05  3.0798830941045909e-05  3.1041755809376046e-05  1.9144085874897652e-05  1.9266669061368020e-05  1.1675200532169990e-05  1.1732345158250130e-05  6.9855378732812945e-06  7.0087241490089673e-06  4.1002004518232281e-06  4.1071263165576359e-06  2.3606686256805432e-06  2.3606154356849173e-06  1.3330169595701315e-06  1.3305771761571378e-06  7.3815061962490660e-07  7.3538354044597660e-07  4.0076839692354052e-07  3.9844700414685450e-07  2.1330671515794567e-07  2.1160534072491667e-07  1.1127433070193460e-07  1.1012642901666078e-07  5.6881998880076727e-08  5.6152314367588588e-08  2.8487038024724241e-08  2.8044644046760712e-08  1.3973611150023625e-08  1.3715941307362913e-08  6.7119345177387441e-09  6.5671004115669313e-09  3.1560599310316860e-09  3.0772583380733047e-09  1.4523566077276343e-09  1.4107707541307128e-09  6.5387406672194648e-10  6.3255744866256336e-10  2.8791176782976336e-10  2.7728774203261685e-10  1.2393909275133405e-10  1.1878737957393211e-10  5.2139392777478527e-11  4.9707759099643509e-11  2.1426033417128780e-11  2.0308522030756009e-11  8.5965930778417644e-12  8.0964793832952571e-12  3.3658023807707947e-12  3.1478548843771373e-12  1.2852028152868545e-12  1.1927207383837429e-12  4.7828676205640251e-13  4.4008328073809789e-13  1.7334618693515745e-13  1.5798740049992658e-13  6.1133654121567907e-14  5.5126749091736306e-14  2.0958584448237976e-14  1.8674192205350544e-14  6.9769369550847070e-15  6.1327177180055313e-15  2.2521913886484286e-15  1.9492329757696480e-15  7.0385640770080545e-16  5.9837565148253881e-16  2.1254279988835980e-16  1.7694964719472802e-16  6.1861774904154025e-17  5.0236712733359980e-17  1.7299661998346641e-17  1.3630433640833529e-17  4.6289011985764401e-18  3.5119094237006049e-18  1.1797714054838547e-18  8.5224549961916258e-19  2.9505344334230991e-19  1.9902718624548246e-19  1.3668838164425378e-19  7.8876342209689030e-20  8.9950732285959106e-03  9.1083003960637232e-03  8.6192520710543612e-03  7.9631033210336866e-03  7.0043175647671067e-03  5.9194846262456647e-03  4.9728711502797264e-03  4.1805550406149505e-03  3.4766152252379435e-03  2.8388731490484619e-03  2.2700152360586897e-03  1.7766469966604690e-03  1.3614084553757427e-03  1.0218985226375598e-03  7.5173365590715203e-04  5.4215702544958974e-04  3.8346880569350246e-04  2.6605990645205303e-04  1.8111242401169415e-04  1.2097252671256890e-04  7.9289240351555599e-05  5.0997642982165469e-05  3.2187221788556801e-05  1.9933997508774776e-05  1.2112804565221287e-05  7.2210726336998173e-06  4.2229203650205244e-06  2.4222028081797005e-06  1.3624623375259214e-06  7.5140966955956547e-07  4.0623966245499662e-07  2.1525284517200258e-07  1.1175764491269904e-07  5.6840891478442048e-08  2.8312980212898539e-08  1.3807943238889531e-08  6.5911298492936400e-09  3.0784849979531724e-09  1.4063986315334925e-09  6.2821674846060677e-10  2.7425935477829653e-10  1.1696860190330209e-10  4.8710106027147889e-11  1.9795864086998277e-11  7.8464442082732535e-12  3.0312394703318898e-12  1.1404717012195508e-12  4.1752936660540545e-13  1.4859070288619664e-13  5.1343964378481993e-14  1.7201964221245575e-14  5.5786981674066443e-15  1.7476899188480207e-15  5.2753816805343722e-16  1.5291630247658348e-16  4.2376186003011300e-17  1.1156434614130038e-17  2.7642870429469807e-18  6.3532071528877874e-19  1.3543069689755180e-19  4.6305398822593818e-20  1.1375589005655978e-02  1.1483739656113509e-02  1.0961188795656239e-02  1.0118806180537130e-02  8.6211095140719500e-03  6.8135061424678270e-03  5.6285122832766075e-03  4.7621172495537819e-03  3.9682909912381803e-03  3.2276687518633558e-03  2.5627758646639821e-03  1.9896065425636291e-03  1.5124117229293682e-03  1.1268023040079584e-03  8.2331790210304640e-04  5.9022650774503982e-04  4.1524905874294602e-04  2.8675018159459288e-04  1.9437839424127817e-04  1.2934262901901505e-04  8.4488230840886765e-05  5.4172776109328960e-05  3.4093324456336995e-05  2.1058378282985615e-05  1.2763966676005256e-05  7.5909858068464563e-06  4.4289989025518512e-06  2.5346716121011946e-06  1.4225416729380334e-06  7.8278969886716496e-07  4.2224771980922208e-07  2.2321815537525874e-07  1.1561726852359007e-07  5.8658463254620936e-08  2.9142683138805860e-08  1.4173817349986924e-08  6.7462246349792704e-09  3.1412261227477505e-09  1.4303353264004939e-09  6.3664743848112800e-10  2.7687847585200964e-10  1.1759716704983878e-10  4.8751612326501972e-11  1.9715476940450011e-11  7.7725482886795554e-12  2.9849209303125419e-12  1.1156976125881343e-12  4.0549037752609588e-13  1.4313385468592997e-13  4.9006216052984389e-14  1.6248416650801552e-14  5.2068187670089241e-15  1.6086957267662888e-15  4.7769628780858565e-16  1.3576678047196823e-16  3.6718114981614218e-17  9.3692266713142045e-18  2.2250692092361938e-18  4.7997579899569134e-19  9.0608266632264631e-20  2.4673847423543394e-20  1.4919773936201915e-02  1.4959105710173811e-02  1.4608566154760571e-02  1.3718453896637938e-02  1.1592970679890043e-02  7.5142730671234302e-03  6.3044620232775893e-03  5.6084020452976807e-03  4.6882882804976829e-03  3.7792181736811693e-03  2.9655565880249454e-03  2.2758442208415772e-03  1.7120168472802792e-03  1.2638529281050199e-03  9.1612433052654281e-04  6.5221581692644038e-04  4.5609255658363233e-04  3.1329146616697210e-04  2.1137739120645054e-04  1.4007132015357544e-04  9.1155268108868932e-05  5.8250910816777156e-05  3.6547079543481937e-05  2.2509480475370405e-05  1.3607258925800665e-05  8.0721525358548441e-06  4.6983983333357329e-06  2.6825721971804428e-06  1.5021027740617181e-06  8.2469328656573385e-07  4.4383748863307394e-07  2.3408931882342689e-07  1.2096122024415343e-07  6.1219733695332628e-08  3.0337752038995673e-08  1.4715644472478619e-08  6.9843585322918846e-09  3.2423609945737807e-09  1.4716591673124770e-09  6.5278890438009809e-10  2.8284554308328280e-10  1.1964875294406966e-10  4.9385175393035440e-11  1.9876204822949512e-11  7.7947709001484539e-12  2.9761112722989038e-12  1.1052545875150920e-12  3.9881353928061251e-13  1.3964231951166954e-13  4.7374289096782936e-14  1.5543348107553030e-14  4.9207097375906605e-15  1.4987371557340399e-15  4.3749362182209043e-16  1.2175416892043058e-16  3.2059999956451849e-17  7.8938520310137410e-18  1.7808351906976491e-18  3.5296441882763719e-19  5.4633590257088400e-20  7.7695578634724968e-21  1.9651168503537566e-02  1.9475724410281080e-02  1.9720794248311906e-02  1.9013306335621562e-02  1.8179211304365603e-02  6.9395300987315526e-03  7.7449912432646763e-03  5.6880183569363134e-03  4.4872966826159663e-03  3.4582168027355864e-03  2.6155318828162345e-03  1.9443391801237480e-03  1.4213364788392675e-03  1.0218104940002270e-03  7.2237363928154437e-04  5.0211170806478971e-04  3.4309220494916113e-04  2.3041913817623336e-04  1.5206646610300319e-04  9.8599898929255857e-05  6.2800013733119780e-05  3.9282161815035581e-05  2.4126122890753359e-05  1.4546406452511872e-05  8.6079178409967762e-06  4.9983546765586875e-06  2.8472645043842991e-06  1.5907173275179657e-06  8.7138264389585557e-07  4.6790594522960926e-07  2.4621743137842546e-07  1.2692879833462875e-07  6.4083500783130869e-08  3.1676164046879830e-08  1.5323775606169533e-08  7.2524041174203509e-09  3.3566449811187224e-09  1.5186102317774302e-09  6.7127243025850414e-10  2.8975965877050203e-10  1.2207203577725333e-10  5.0160205341319452e-11  2.0089110079830896e-11  7.8356417534916894e-12  2.9737668234378261e-12  1.0969923070296239e-12  3.9285680160189789e-13  1.3638618790233894e-13  4.5819845594935523e-14  1.4864490613495490e-14  4.6438728286468753e-15  1.3922239520075946e-15  3.9862026772600210e-16  1.0826290246935876e-16  2.7605261050892731e-17  6.4960502751176745e-18  1.3652199318637195e-18  2.3617913076149991e-19  2.2473495339898917e-20  -6.9169093143505920e-21  2.5467806286686195e-02  2.4617143450718911e-02  2.6576671729380913e-02  2.5206253780751826e-02  2.2700884408688029e-02  9.0410803818964710e-03  1.2287287917078976e-02  6.9295382000115983e-03  5.2881231177141844e-03  3.9915513024046684e-03  2.9744804786783993e-03  2.1861600932756436e-03  1.5835805353832479e-03  1.1298891882693186e-03  7.9369977783862655e-04  5.4868952225296764e-04  3.7314438949148274e-04  2.4955939706433004e-04  1.6409100797131493e-04  1.0604215581215190e-04  6.7336122714938668e-05  4.2002555640777450e-05  2.5730547380988524e-05  1.5475964551433513e-05  9.1366868687517311e-06  5.2934628478867400e-06  3.0087309811381665e-06  1.6772563018708854e-06  9.1677669615491800e-07  4.9118836838469145e-07  2.5788105719302891e-07  1.3262885898555585e-07  6.6797023293610885e-08  3.2932271805396285e-08  1.5887926837350245e-08  7.4975270909511373e-09  3.4592778035100146e-09  1.5597877068482036e-09  6.8696771731600088e-10  2.9536213469409506e-10  1.2389463087292982e-10  5.0667605879567756e-11  2.0186107261126067e-11  7.8277643226794884e-12  2.9515362900705664e-12  1.0808732247263739e-12  3.8389914926013634e-13  1.3202456995173358e-13  4.3873835381081870e-14  1.4052836930999302e-14  4.3241734663936754e-15  1.2726642086528120e-15  3.5605871553602605e-16  9.3830812856619514e-17  2.2948042299968300e-17  5.0693896080347951e-18  9.5218204406077541e-19  1.2378450020477101e-19  -7.0848639729951097e-21  -1.9760254065253077e-20  3.0684745822797781e-02  2.9006221115888568e-02  3.4182265966821355e-02  3.2404419238265737e-02  2.5686425381675867e-02  1.8881504592774642e-02  1.9924414815491301e-02  1.4675648306791057e-02  1.0810818933142322e-02  8.0687997273213765e-03  6.0339168174161602e-03  4.4881150031280490e-03  3.3074670270598718e-03  2.4094456135978423e-03  1.7327050816505363e-03  1.2287844732699509e-03  8.5869363525121589e-04  5.9095659149001030e-04  4.0031726812443826e-04  2.6680123442620105e-04  1.7488053652450926e-04  1.1269605299787091e-04  7.1375163344843592e-05  4.4414183990855400e-05  2.7145752956103739e-05  1.6291706819595722e-05  9.5979263395243727e-06  5.5491330783618693e-06  3.1475336722880853e-06  1.7509805080091442e-06  9.5504728617420606e-07  5.1057855009203197e-07  2.6745516446101189e-07  1.3722729713259968e-07  6.8940444774253934e-08  3.3898922561568517e-08  1.6307966948392955e-08  7.6723354659162100e-09  3.5283086674894343e-09  1.5852481017605517e-09  6.9547246459384625e-10  2.9774947159538030e-10  1.2431338136697303e-10  5.0576994428896661e-11  2.0034842489922958e-11  7.7195663601813190e-12  2.8899026985353777e-12  1.0497367988611109e-12  3.6939933007383600e-13  1.2568753279749693e-13  4.1250083605594234e-14  1.3018387921712173e-14  3.9347557872988906e-15  1.1325432875264624e-15  3.0787731485820361e-16  7.8020460761728502e-17  1.8010422188306244e-17  3.6082479391396403e-18  5.4532463740595604e-19  1.8260187742143575e-20  -3.2926490704130398e-20  -3.0034344907295695e-20  3.2403375384740404e-02  3.0995545001834872e-02  3.5918356012860128e-02  3.4592498809307613e-02  2.7417056482068311e-02  2.0869059283046699e-02  1.5783308609252526e-02  1.1841849177676615e-02  8.8572574839330901e-03  6.5948216505400444e-03  4.8757620177842572e-03  3.5714670815743164e-03  2.5874662876282308e-03  1.8516461599227116e-03  1.3075160666593273e-03  9.1027932598464558e-04  6.2437325177809924e-04  4.2169555462332576e-04  2.8029861656424780e-04  1.8328054370786201e-04  1.1784236957107679e-04  7.4477425542784562e-05  4.6251967243721466e-05  2.8214212378809659e-05  1.6900831765706191e-05  9.9381867158290828e-06  5.7350095646192045e-06  3.2467188159546895e-06  1.8025974804745854e-06  9.8118960390335355e-07  5.2343132973887105e-07  2.7356859723411575e-07  1.4002742125685062e-07  7.0166989766171922e-08  3.4407138566566742e-08  1.6503342924139821e-08  7.7392908781306837e-09  3.5466514106344250e-09  1.5874025508325559e-09  6.9350119408576730e-10  2.9553697074166869e-10  1.2276102443860528e-10  4.9662908870588245e-11  1.9548579617668708e-11  7.4788495518684454e-12  2.7773799797073520e-12  9.9966874667105162e-13  3.4809439139079339e-13  1.1699493796118188e-13  3.7844781572887561e-14  1.1737021109439510e-14  3.4718071879133028e-15  9.7213312107388967e-16  2.5467847730919861e-16  6.1185469395921199e-17  1.2950043957525955e-17  2.1733701381561080e-18  1.6571076593250342e-19  -7.3722527147852412e-20  -5.3035130338030261e-20  -3.6696325706859269e-20  3.1622065731314992e-02  3.1091871899660159e-02  3.2681285005886899e-02  3.1356121372760566e-02  2.6529024706312344e-02  2.0961106554353574e-02  1.6220709077130548e-02  1.2349544927463901e-02  9.2949348035872709e-03  6.9284343766091673e-03  5.1150248882864766e-03  3.7374715662533875e-03  2.7002556342455471e-03  1.9271243673481965e-03  1.3573499398932853e-03  9.4277233925308854e-04  6.4527327649129506e-04  4.3495684800562504e-04  2.8858421068874508e-04  1.8837132974869659e-04  1.2091633215958771e-04  7.6298394482761934e-05  4.7307914944696700e-05  2.8813134303739184e-05  1.7232015903838539e-05  1.0116485037101494e-05  5.8280070057395782e-06  3.2935223215428696e-06  1.8251687612140914e-06  9.9150695238049289e-07  5.2781628328166084e-07  2.7523409950344124e-07  1.4053517639715841e-07  7.0234953225201690e-08  3.4341439008779252e-08  1.6420236413053549e-08  7.6739624070764137e-09  3.5035214038951972e-09  1.5616313327197765e-09  6.7913876287249319e-10  2.8795904001746501e-10  1.1894392169280400e-10  4.7818101787659615e-11  1.8690465672491869e-11  7.0939553668753847e-12  2.6107259702749632e-12  9.2997606194734923e-13  3.1994500242454903e-13  1.0601770319416696e-13  3.3715127312160118e-14  1.0240115683920533e-14  2.9499259451798782e-15  7.9755419895376834e-16  1.9883151286585709e-16  4.4181708301208463e-17  8.0564598330903319e-18  8.5638518135178771e-19  -1.5971767212969402e-19  -1.4492468725446902e-19  -6.5645099458567867e-20  -3.8797010623887032e-20  3.1187999071164537e-02  3.0997612828031495e-02  3.1365304555092031e-02  2.9759543656105305e-02  2.5746194474614858e-02  2.0837355598992219e-02  1.6298199857353309e-02  1.2482882091912079e-02  9.4235509454069985e-03  7.0319827178756435e-03  5.1913214231854949e-03  3.7908957241951920e-03  2.7364638982866397e-03  1.9510477106449804e-03  1.3728280090108511e-03  9.5257168718909137e-04  6.5134250968397825e-04  4.3861396545594937e-04  2.9072197225472711e-04  1.8957551468213400e-04  1.2156305018042966e-04  7.6622676815581620e-05  4.7454927418023525e-05  2.8867805635863217e-05  1.7242469859032394e-05  1.0108480752122680e-05  5.8146136165398535e-06  3.2805880105108188e-06  1.8147775096891935e-06  9.8395942955229632e-07  5.2269604427412235e-07  2.7193741634675992e-07  1.3850255418208980e-07  6.9028274983479714e-08  3.3649299250210447e-08  1.6035766367421224e-08  7.4668212864365798e-09  3.3951662593321007e-09  1.5065637404704490e-09  6.5193872449920876e-10  2.7489918860034895e-10  1.1284867498427232e-10  4.5053404953578311e-11  1.7472150168712826e-11  6.5726226240646201e-12  2.3942396833143380e-12  8.4281043764588456e-13  2.8595057914726512e-13  9.3192792975299011e-14  2.9042296725023275e-14  8.5991783226523718e-15  2.3960161508452035e-15  6.1845327223515851e-16  1.4362623011407438e-16  2.8071996500649112e-17  3.6527224924552500e-18  -2.5140943254747084e-19  -4.0753268947279979e-19  -1.9027130779771775e-19  -7.0133603687376372e-20  -3.4927257128390861e-20  </DataArray> 
</PointData> 
</Piece>
</UnstructuredGrid>
</VTKFile>