<?xml version="1.0"?>
<VTKFile type="UnstructuredGrid"  version="0.1"  >
<UnstructuredGrid>
<Piece  NumberOfPoints="670" NumberOfCells="1192">
<Points>
<DataArray  type="Float64"  NumberOfComponents="3"  format="ascii">0 0 0  0.04 -1.31357e-10 0  0.0400579 0.0400582 0  0 0.04 0  0.08 -2.62713e-10 0  0.080123 0.0401093 0  0.12 -3.9407e-10 0  0.120183 0.040127 0  0.16 -5.25427e-10 0  0.160176 0.0400597 0  0.2 -6.56784e-10 0  0.199997 0.0399142 0  0.24 -7.8814e-10 0  0.239816 0.0400642 0  0.28 -9.19497e-10 0  0.279804 0.0401377 0  0.32 -1.05085e-09 0  0.319855 0.0401297 0  0.36 -1.18221e-09 0  0.359906 0.0400945 0  0.4 -1.31357e-09 0  0.399941 0.0400609 0  0.44 -1.44492e-09 0  0.439962 0.0400367 0  0.48 -1.57628e-09 0  0.479975 0.0400214 0  0.52 -1.70764e-09 0  0.519983 0.0400122 0  0.5600000000000001 -1.83899e-09 0  0.559987 0.0400069 0  0.6 -1.97035e-09 0  0.59999 0.040004 0  0.64 -2.10171e-09 0  0.639993 0.0400023 0  0.68 -2.23306e-09 0  0.679994 0.0400013 0  0.72 -2.36442e-09 0  0.7199950000000001 0.0400008 0  0.76 -2.49578e-09 0  0.759996 0.0400005 0  0.8 -2.62713e-09 0  0.799997 0.0400002 0  0.84 -2.75849e-09 0  0.839997 0.0400001 0  0.88 -2.88985e-09 0  0.8799979999999999 0.04 0  0.92 -3.0212e-09 0  0.919999 0.0399999 0  0.96 -3.15256e-09 0  0.959999 0.0399998 0  1 -3.28392e-09 0  1 0.0399998 0  1.04 -3.41527e-09 0  1.04 0.0399998 0  1.08 -3.54663e-09 0  1.08 0.0399998 0  1.12 -3.67799e-09 0  1.12 0.0399998 0  1.16 -3.80934e-09 0  1.16 0.0399999 0  1.2 -3.9407e-09 0  1.2 0.04 0  1.24 -4.07206e-09 0  1.24 0.04 0  1.28 -4.20341e-09 0  1.28 0.0400001 0  1.32 -4.33477e-09 0  1.32 0.0400001 0  1.36 -4.46613e-09 0  1.36 0.04 0  1.4 -4.59748e-09 0  1.4 0.04 0  1.44 -4.72884e-09 0  1.44 0.04 0  1.48 -4.8602e-09 0  1.48 0.04 0  1.52 -4.99156e-09 0  1.52 0.04 0  1.56 -5.12291e-09 0  1.56 0.04 0  1.6 -5.25427e-09 0  1.6 0.0400001 0  1.64 -5.38563e-09 0  1.64 0.0400001 0  1.68 -5.51698e-09 0  1.68 0.04 0  1.72 -5.64834e-09 0  1.72 0.04 0  1.76 -5.7797e-09 0  1.76 0.04 0  1.8 -5.91105e-09 0  1.8 0.04 0  1.84 -6.04241e-09 0  1.84 0.04 0  1.88 -6.17377e-09 0  1.88 0.0400001 0  1.92 -6.30512e-09 0  1.92 0.0400001 0  1.96 -6.43648e-09 0  1.96 0.0400001 0  2 -6.56784e-09 0  2 0.0400001 0  2.04 -6.69919e-09 0  2.04 0.0400001 0  2.08 -6.83055e-09 0  2.08 0.04 0  2.12 -6.96191e-09 0  2.12 0.04 0  2.16 -7.09326e-09 0  2.16 0.0400001 0  2.2 -7.22462e-09 0  2.2 0.04 0  2.24 -7.35598e-09 0  2.24 0.04 0  2.28 -7.48733e-09 0  2.28 0.0399999 0  2.32 -7.618690000000001e-09 0  2.32 0.04 0  2.36 -7.750049999999999e-09 0  2.36 0.04 0  2.4 -7.8814e-09 0  2.4 0.04 0  0.0401088 0.0801235 0  0 0.08 0  0.0802509 0.0802518 0  0.120434 0.0803392 0  0.160522 0.0801977 0  0.199995 0.0795328 0  0.239464 0.0802049 0  0.279544 0.08035689999999999 0  0.319711 0.0802867 0  0.359828 0.08018740000000001 0  0.399896 0.0801123 0  0.439933 0.0800646 0  0.479955 0.0800365 0  0.519968 0.08002049999999999 0  0.559976 0.0800116 0  0.599982 0.0800066 0  0.6399860000000001 0.0800039 0  0.679989 0.0800023 0  0.719991 0.0800014 0  0.759992 0.0800008 0  0.799994 0.0800004 0  0.839995 0.08000019999999999 0  0.879996 0.0799999 0  0.919997 0.07999970000000001 0  0.959999 0.0799996 0  1 0.0799995 0  1.04 0.0799995 0  1.08 0.0799996 0  1.12 0.07999970000000001 0  1.16 0.0799998 0  1.2 0.08 0  1.24 0.0800001 0  1.28 0.0800001 0  1.32 0.0800001 0  1.36 0.08 0  1.4 0.0799999 0  1.44 0.0799999 0  1.48 0.0799999 0  1.52 0.0799999 0  1.56 0.08 0  1.6 0.0800001 0  1.64 0.0800001 0  1.68 0.08 0  1.72 0.0799999 0  1.76 0.0799999 0  1.8 0.0799999 0  1.84 0.0799999 0  1.88 0.08 0  1.92 0.0800001 0  1.96 0.0800001 0  2 0.0800001 0  2.04 0.08 0  2.08 0.0799999 0  2.12 0.0799999 0  2.16 0.08 0  2.2 0.08 0  2.24 0.0799999 0  2.28 0.0799998 0  2.32 0.0799999 0  2.36 0.0799999 0  2.4 0.08 0  0.0401262 0.120184 0  0 0.12 0  0.0803378 0.120435 0  0.120779 0.12078 0  0.161485 0.120859 0  0.199996 0.117814 0  0.238503 0.120866 0  0.279195 0.120798 0  0.319616 0.120473 0  0.359799 0.120256 0  0.39988 0.120136 0  0.439921 0.120073 0  0.479944 0.120039 0  0.519958 0.120022 0  0.5599690000000001 0.120012 0  0.599976 0.120007 0  0.639981 0.120004 0  0.679985 0.120002 0  0.719987 0.120002 0  0.7599900000000001 0.120001 0  0.799991 0.12 0  0.839993 0.12 0  0.879995 0.12 0  0.919996 0.12 0  0.959998 0.119999 0  1 0.119999 0  1.04 0.119999 0  1.08 0.119999 0  1.12 0.12 0  1.16 0.12 0  1.2 0.12 0  1.24 0.12 0  1.28 0.12 0  1.32 0.12 0  1.36 0.12 0  1.4 0.12 0  1.44 0.12 0  1.48 0.12 0  1.52 0.12 0  1.56 0.12 0  1.6 0.12 0  1.64 0.12 0  1.68 0.12 0  1.72 0.12 0  1.76 0.12 0  1.8 0.12 0  1.84 0.12 0  1.88 0.12 0  1.92 0.12 0  1.96 0.12 0  2 0.12 0  2.04 0.12 0  2.08 0.12 0  2.12 0.12 0  2.16 0.12 0  2.2 0.12 0  2.24 0.12 0  2.28 0.12 0  2.32 0.12 0  2.36 0.12 0  2.4 0.12 0  0.0400582 0.160177 0  0 0.16 0  0.0801954 0.160525 0  0.120857 0.161488 0  0.164645 0.164645 0  0.2 0.15 0  0.235355 0.164645 0  0.279119 0.161498 0  0.319759 0.16055 0  0.359874 0.160228 0  0.399906 0.160104 0  0.439925 0.160051 0  0.479941 0.160027 0  0.519954 0.160014 0  0.559964 0.160008 0  0.5999719999999999 0.160005 0  0.639978 0.160003 0  0.679982 0.160002 0  0.719985 0.160001 0  0.759988 0.160001 0  0.79999 0.16 0  0.839992 0.16 0  0.8799940000000001 0.16 0  0.919996 0.159999 0  0.959998 0.159999 0  1 0.159999 0  1.04 0.159999 0  1.08 0.159999 0  1.12 0.16 0  1.16 0.16 0  1.2 0.16 0  1.24 0.16 0  1.28 0.16 0  1.32 0.16 0  1.36 0.16 0  1.4 0.16 0  1.44 0.16 0  1.48 0.16 0  1.52 0.16 0  1.56 0.16 0  1.6 0.16 0  1.64 0.16 0  1.68 0.16 0  1.72 0.16 0  1.76 0.16 0  1.8 0.16 0  1.84 0.16 0  1.88 0.16 0  1.92 0.16 0  1.96 0.16 0  2 0.16 0  2.04 0.16 0  2.08 0.16 0  2.12 0.16 0  2.16 0.16 0  2.2 0.16 0  2.24 0.16 0  2.28 0.16 0  2.32 0.16 0  2.36 0.16 0  2.4 0.16 0  0.0399111 0.2 0  0 0.2 0  0.0795281 0.2 0  0.117811 0.2 0  0.15 0.2 0  0.282167 0.2 0  0.25 0.2 0  0.320429 0.2 0  0.36003 0.200001 0  0.399944 0.200001 0  0.439934 0.200001 0  0.479942 0.200001 0  0.519953 0.200001 0  0.559963 0.200001 0  0.59997 0.200001 0  0.639976 0.200001 0  0.6799809999999999 0.200001 0  0.719984 0.200001 0  0.759987 0.200001 0  0.799989 0.2 0  0.839991 0.2 0  0.879993 0.2 0  0.919996 0.199999 0  0.959998 0.199999 0  1 0.199999 0  1.04 0.199999 0  1.08 0.199999 0  1.12 0.2 0  1.16 0.2 0  1.2 0.2 0  1.24 0.2 0  1.28 0.2 0  1.32 0.2 0  1.36 0.2 0  1.4 0.2 0  1.44 0.2 0  1.48 0.2 0  1.52 0.2 0  1.56 0.2 0  1.6 0.2 0  1.64 0.2 0  1.68 0.2 0  1.72 0.2 0  1.76 0.2 0  1.8 0.2 0  1.84 0.2 0  1.88 0.2 0  1.92 0.2 0  1.96 0.2 0  2 0.2 0  2.04 0.2 0  2.08 0.2 0  2.12 0.2 0  2.16 0.2 0  2.2 0.2 0  2.24 0.2 0  2.28 0.2 0  2.32 0.2 0  2.36 0.2 0  2.4 0.2 0  0.0400582 0.239823 0  0 0.24 0  0.0801953 0.239475 0  0.120857 0.238513 0  0.164645 0.235355 0  0.279119 0.238502 0  0.235355 0.235355 0  0.319759 0.239451 0  0.359873 0.239774 0  0.399905 0.239898 0  0.439925 0.239951 0  0.479941 0.239976 0  0.519954 0.239988 0  0.559964 0.239994 0  0.5999719999999999 0.239997 0  0.639977 0.239999 0  0.679982 0.24 0  0.719985 0.24 0  0.759987 0.24 0  0.79999 0.24 0  0.839992 0.24 0  0.8799940000000001 0.24 0  0.919996 0.239999 0  0.959998 0.239999 0  1 0.239999 0  1.04 0.239999 0  1.08 0.239999 0  1.12 0.24 0  1.16 0.24 0  1.2 0.24 0  1.24 0.24 0  1.28 0.24 0  1.32 0.24 0  1.36 0.24 0  1.4 0.24 0  1.44 0.24 0  1.48 0.24 0  1.52 0.24 0  1.56 0.24 0  1.6 0.24 0  1.64 0.24 0  1.68 0.24 0  1.72 0.24 0  1.76 0.24 0  1.8 0.24 0  1.84 0.24 0  1.88 0.24 0  1.92 0.24 0  1.96 0.24 0  2 0.24 0  2.04 0.24 0  2.08 0.24 0  2.12 0.24 0  2.16 0.24 0  2.2 0.24 0  2.24 0.24 0  2.28 0.24 0  2.32 0.24 0  2.36 0.24 0  2.4 0.24 0  0.0401261 0.279816 0  0 0.28 0  0.0803376 0.279565 0  0.120778 0.27922 0  0.161485 0.279141 0  0.2 0.25 0  0.199996 0.282186 0  0.238503 0.279135 0  0.279195 0.279202 0  0.319616 0.279528 0  0.359799 0.279745 0  0.39988 0.279865 0  0.43992 0.279929 0  0.479944 0.279962 0  0.519958 0.27998 0  0.559968 0.27999 0  0.599976 0.279995 0  0.639981 0.279998 0  0.679984 0.279999 0  0.719987 0.28 0  0.759989 0.28 0  0.799991 0.28 0  0.839993 0.28 0  0.879995 0.28 0  0.919997 0.279999 0  0.959998 0.279999 0  1 0.279999 0  1.04 0.279999 0  1.08 0.28 0  1.12 0.28 0  1.16 0.28 0  1.2 0.28 0  1.24 0.28 0  1.28 0.28 0  1.32 0.28 0  1.36 0.28 0  1.4 0.28 0  1.44 0.28 0  1.48 0.28 0  1.52 0.28 0  1.56 0.28 0  1.6 0.28 0  1.64 0.28 0  1.68 0.28 0  1.72 0.28 0  1.76 0.28 0  1.8 0.28 0  1.84 0.28 0  1.88 0.28 0  1.92 0.28 0  1.96 0.28 0  2 0.28 0  2.04 0.28 0  2.08 0.28 0  2.12 0.28 0  2.16 0.28 0  2.2 0.28 0  2.24 0.28 0  2.28 0.28 0  2.32 0.28 0  2.36 0.28 0  2.4 0.28 0  0.0401086 0.319877 0  0 0.32 0  0.08025060000000001 0.319748 0  0.120433 0.319661 0  0.160522 0.319802 0  0.199995 0.320467 0  0.239464 0.319795 0  0.279543 0.319643 0  0.31971 0.319714 0  0.359828 0.319813 0  0.399895 0.319889 0  0.439933 0.319937 0  0.479955 0.319965 0  0.519968 0.319981 0  0.559976 0.31999 0  0.599982 0.319995 0  0.6399860000000001 0.319998 0  0.679989 0.319999 0  0.719991 0.32 0  0.759992 0.32 0  0.799994 0.32 0  0.839995 0.32 0  0.879996 0.32 0  0.919998 0.32 0  0.959999 0.32 0  1 0.32 0  1.04 0.32 0  1.08 0.32 0  1.12 0.32 0  1.16 0.32 0  1.2 0.32 0  1.24 0.32 0  1.28 0.32 0  1.32 0.32 0  1.36 0.32 0  1.4 0.32 0  1.44 0.32 0  1.48 0.32 0  1.52 0.32 0  1.56 0.32 0  1.6 0.32 0  1.64 0.32 0  1.68 0.32 0  1.72 0.32 0  1.76 0.32 0  1.8 0.32 0  1.84 0.32 0  1.88 0.32 0  1.92 0.32 0  1.96 0.32 0  2 0.32 0  2.04 0.32 0  2.08 0.32 0  2.12 0.32 0  2.16 0.32 0  2.2 0.32 0  2.24 0.32 0  2.28 0.32 0  2.32 0.32 0  2.36 0.32 0  2.4 0.32 0  0.0400579 0.359942 0  0 0.36 0  0.0801229 0.359891 0  0.120183 0.359873 0  0.160175 0.35994 0  0.199997 0.360086 0  0.239816 0.359936 0  0.279804 0.359862 0  0.319855 0.359871 0  0.359906 0.359906 0  0.399941 0.35994 0  0.439962 0.359964 0  0.479975 0.359979 0  0.5199820000000001 0.359989 0  0.559987 0.359994 0  0.59999 0.359997 0  0.639993 0.359998 0  0.679994 0.359999 0  0.7199950000000001 0.36 0  0.759996 0.36 0  0.799997 0.36 0  0.839997 0.36 0  0.8799979999999999 0.36 0  0
[...]
<PointData  Scalars="f_10391-1"> 
<DataArray  type="Float64"  Name="f_10391-1"  format="ascii">-4.5348320677398932e-06  -2.6836550764813344e-06  -2.9370374962153704e-07  -5.6045167803055025e-06  1.3091926717797250e-07  6.0966276474256157e-06  2.2541269004112136e-06  9.6332633157678165e-06  2.4092039539898435e-06  7.9236270961327850e-06  1.3981796555528677e-06  4.0485610539413913e-06  5.1009811997897035e-07  1.3706379535656039e-06  1.3767530200577552e-07  3.6572928314432687e-07  2.9402781102359943e-08  8.1867384002802161e-08  4.9890857183531700e-09  1.5218488256391431e-08  6.4044043221173844e-10  2.2252867035751193e-09  5.4650840274703961e-11  2.3356978790115720e-10  1.8260894076723110e-12  1.4452877755988366e-11  -1.8140834282887899e-13  1.1904241668308719e-13  -2.2104374827037437e-14  -4.6548467339930109e-14  -1.4950816538250098e-16  -9.4291747592725926e-16  7.8676747129062796e-17  2.1611950651416232e-16  1.6827369112168203e-19  -1.8979673559059026e-19  -2.6623277183156861e-19  -1.2868062335019009e-18  1.1814500083805564e-20  2.5253132322371254e-20  6.2154301566481294e-22  4.3565677854673192e-21  -8.5386675362457937e-23  -2.8897449417655346e-22  2.1139353593020700e-24  1.8499342532299625e-24  1.7055623360413023e-25  1.1435004572568308e-24  -1.9654410450396002e-26  -9.8600972425935855e-26  1.0717761020029847e-27  2.4137129857079412e-27  -1.3811673062595549e-29  2.1666260695076831e-28  -3.8966556835948013e-30  -2.6356936113540766e-29  4.1365679968864141e-31  1.4593348713768431e-30  -1.9619847564777223e-32  -3.7338952417118208e-32  1.9316818872734661e-34  -1.8875103282093842e-33  4.1606758434334751e-35  3.2641483618772839e-34  -3.9216577980432751e-36  -2.4164432988387118e-35  2.3434888971259901e-37  1.1353637000768256e-36  -1.0331533494499564e-38  -3.3746030631238504e-38  2.3218306008147083e-40  4.7597589903389622e-40  6.5029385319530519e-42  1.6418543633433400e-41  -5.6775639669809446e-43  -1.7802807298337814e-42  -1.6570671463976112e-44  -9.7337981765608960e-45  5.7343407819569063e-45  1.7171055442830180e-44  -7.4261680306704265e-46  -1.6432441664169298e-45  7.9112969690715646e-47  5.5655115785256216e-47  -6.8581558318374763e-48  2.9320282498541831e-48  4.7237098824897638e-49  -6.1052997622383466e-49  -2.7372161141864395e-50  7.0793058107462236e-50  1.5319413877448230e-51  -7.5115436429101259e-51  -9.1712018068041956e-53  7.0443243990371416e-52  5.4698802087741772e-54  -5.7076901160683709e-53  -2.9588226395457579e-55  4.2473609814464958e-54  1.5646925695514834e-56  -3.1418195275194088e-55  -9.7770479955152327e-58  2.3401461495813388e-56  7.0658536532406054e-59  -1.6862409094053327e-57  -5.2240986955037431e-60  1.1639680743934430e-58  4.2852056503461201e-61  -8.0198518440774879e-60  -4.1907281790184676e-62  5.6820219110466956e-61  4.2041624141527685e-63  -3.9978966652322291e-62  -3.7951453606777171e-64  2.6433771869132898e-63  3.0810735268458259e-65  -1.6281412745917306e-64  -2.4067102080808023e-66  9.8229647530761215e-66  1.9231768292324647e-67  -6.7099167070792808e-67  -4.2044256136607381e-68  7.4736137031579861e-68  2.4507049783496767e-05  6.6224345426547087e-06  4.5679223836404186e-05  5.3131633844906801e-05  3.8271341321755792e-05  1.7483908898667760e-05  5.6035275241890655e-06  1.5795755954863909e-06  4.0151145309620868e-07  8.6856602884234429e-08  1.5005875966739881e-08  1.9507191914320589e-09  1.7539997995238598e-10  8.8708897051841063e-12  1.0471640267375453e-14  -2.4116762204585524e-14  -4.0755437489120473e-16  6.2114068298009049e-17  -2.3234801365881931e-19  -1.4796775457544648e-19  8.4720790847860202e-21  -2.3510371513223136e-22  -2.3869732465451675e-23  3.7649223815940448e-24  -1.9104917345644650e-25  -3.5788175705728137e-27  1.0905203705860750e-27  -6.8923666736569271e-29  2.5907035304254584e-30  -7.0286714304084197e-32  -4.8257127960112285e-33  1.2571848002314419e-33  -1.2622639660055638e-34  7.8955357932751966e-36  -3.1536985950456648e-37  3.3772685383473193e-39  7.7335891860505912e-40  -9.6842402400278881e-41  8.4646518754555941e-42  -6.5900186438171113e-43  4.6597521929055310e-44  -2.9809028637353122e-45  1.8021857253481743e-46  -1.0975943547740133e-47  6.8930574988403303e-49  -4.4919416373686319e-50  3.1227862143570482e-51  -2.2718672441492971e-52  1.5963181924445763e-53  -1.0482882142211115e-54  6.9350012945190940e-56  -5.0812893637694128e-57  3.9593627499514230e-58  -2.9638304473399387e-59  2.1002422468394993e-60  -1.5132782789363162e-61  1.1648643989984423e-62  -9.1448739470241467e-64  6.8385006436505043e-65  -4.7252870923818112e-66  6.9251433337285635e-67  1.5138491862231901e-04  9.9742389110213758e-05  2.1628616928367244e-04  2.2754864166321442e-04  1.5112994627352081e-04  5.6467499374472817e-05  1.7199921098275749e-05  5.4508925364556129e-06  1.5887010120683475e-06  3.7857454853512303e-07  7.0036476672546435e-08  9.6595491864312605e-09  9.2652675262692948e-10  5.1201338827134903e-11  2.2344887656205393e-13  -1.5525304749636000e-13  -2.9493419405593946e-15  7.1165467618290579e-16  2.3123406477891889e-17  -2.1613697992131157e-18  -3.5394353334512948e-20  5.6108644645030963e-21  -1.7800497627545652e-22  -4.7046748007762626e-24  9.2808260645476235e-25  -2.2680026706003510e-26  -1.5540210000681351e-27  -4.4262857593367970e-29  1.6998965481617415e-29  -7.1862199423911134e-31  -3.6989122983161171e-32  7.8765157192011178e-33  -7.6447138092674820e-34  4.7298649275190392e-35  -1.1134179323312703e-36  -1.1865886931504755e-37  1.8112473045671383e-38  -1.5281608227922171e-39  1.0055528299967119e-40  -5.3176231306045871e-42  2.0496630140565795e-43  -3.2024143901314790e-45  -3.4917835014066678e-46  4.9803545445415486e-47  -4.5174808850553763e-48  3.5255475173915952e-49  -2.5540667217885488e-50  1.7686410446968119e-51  -1.1869420611966389e-52  7.9776271740943440e-54  -5.6623221109904078e-55  4.2663276857668214e-56  -3.2055552229584558e-57  2.2860309110816912e-58  -1.5719224314379287e-59  1.1002414256810335e-60  -7.9713418568584222e-62  5.7018221864683541e-63  -3.8168848158821144e-64  2.4867935194767610e-65  -2.8011464003961571e-66  5.8420157423743463e-04  4.4489451605760636e-04  7.8016812039203990e-04  8.0145479767995134e-04  5.5116934968881968e-04  1.1156292483359361e-04  3.8183653728321012e-05  1.7271189599767992e-05  5.6474692597548047e-06  1.3899864026321803e-06  2.5879060289739887e-07  3.5556797224759375e-08  3.3356277853298134e-09  1.6275269494115718e-10  -3.9356086782822047e-12  -1.0861366693291435e-12  -3.8797664122828622e-14  2.3964794833720790e-15  9.7891278034054177e-17  -1.1364275099116717e-17  -3.1842918155162824e-20  5.6895930558603170e-20  -1.3401909618500919e-21  -1.6299025208189180e-22  8.6686816076419023e-24  1.3458262147985997e-25  -1.9680442203672396e-26  3.1420365500890963e-29  5.5186629821770349e-29  -1.1653252029146369e-30  -4.0495816285781838e-31  5.1054172650042365e-32  -2.8062333434559651e-33  2.9634969753157916e-35  1.0769734280070650e-35  -1.5272293198226315e-36  1.3551425973497706e-37  -8.2428473826163659e-39  2.9119082908656645e-40  2.6305570176674347e-42  -1.4253854407425818e-42  1.5516907681268870e-43  -1.2925233433720158e-44  9.3231021271544771e-46  -6.0744427732267427e-47  3.7130405197277840e-48  -2.1813960406874954e-49  1.2425504818862475e-50  -7.0014071338882990e-52  4.0333376921996270e-53  -2.3889629090280801e-54  1.4318411771659613e-55  -8.8828552673044953e-57  5.9474697524038993e-58  -4.1508224073174105e-59  2.7805391022488919e-60  -1.7601080188014663e-61  1.1479223909932955e-62  -8.3722252790558600e-64  5.9626199807485167e-65  -1.0294888118996032e-65  1.6819439537846300e-03  1.3088694136131837e-03  2.2496422876569708e-03  2.2677657397341643e-03  2.0108688057306275e-03  5.6828529944156556e-05  1.1207338390488559e-04  1.7633051855993372e-05  4.0547565687515619e-06  7.0623736069461372e-07  8.8936760263605124e-08  6.8783828528939460e-09  6.7310047635566995e-11  -5.4478948038676157e-11  -6.1914440279793915e-12  -2.1056417385433531e-13  9.5026024680217173e-15  4.1322449831000348e-16  -5.4051987912580383e-17  -4.3530606384149325e-19  2.5821645675508750e-19  -7.2141998866536557e-21  -7.3559637582350638e-22  5.1698389068747897e-23  -6.2360911978806476e-25  -7.6068508175512949e-26  7.5068043584040227e-27  -4.7292167811926348e-28  2.5349860385988598e-29  -1.1477007723881983e-30  2.5868237500839662e-33  7.8772177469316688e-33  -1.1395170386001186e-33  1.0233652650981256e-34  -6.1911980634527860e-36  2.1737704005398644e-37  2.6820128622555449e-39  -1.3837826721922148e-39  1.7393748542438994e-40  -1.5882078119883352e-41  1.1569244070022234e-42  -7.0711769477433301e-44  3.7322346294084612e-45  -1.5900076327689892e-46  3.4623749886628726e-48  2.4702297819325356e-49  -4.3986207575061137e-50  4.5190424174862840e-51  -3.9948602001685954e-52  3.2122349113102090e-53  -2.3760051576370185e-54  1.6696262081780970e-55  -1.1607200116795742e-56  8.0664462505637045e-58  -5.4896172400939581e-59  3.6040063919999305e-60  -2.3016280909595375e-61  1.4506161265127670e-62  -9.2958422763237790e-64  1.0873407843354638e-64  3.9015922904191052e-03  2.8204338664079716e-03  5.6033570080149349e-03  5.1498212810248030e-03  3.5287451453510617e-03  1.5227386858417366e-04  5.5349252887063787e-04  3.8665657524439962e-05  7.9309587606212947e-06  1.2219465381970162e-06  1.2172168940032635e-07  2.8105847224020473e-09  -1.3615268576752337e-09  -2.3944110692274051e-10  -1.6471846289625493e-11  1.0276962121737455e-13  8.3300845531151611e-14  1.6500409213463045e-15  -3.3807988022995890e-16  -5.6202666917060361e-18  1.2087743967151146e-18  -2.1670416057871154e-20  -1.4970685110837602e-21  3.2385575993047103e-22  -1.8506908453432139e-23  -6.5205961456962646e-25  1.2544583735715464e-25  -6.6711659889243748e-27  6.3997097842514568e-29  2.2212033162586543e-29  -2.3343262381144624e-30  1.3591984880535918e-31  -4.7518371697713646e-33  -3.9741699592039930e-35  2.4499090817233351e-35  -2.5530254726494957e-36  1.8896651152243558e-37  -1.1966627742202673e-38  7.1105061628897119e-40  -4.0841792652180216e-41  1.9534085118912964e-42  -2.7350866757116224e-44  -8.1425067238362352e-45  1.2272659390770770e-45  -1.2004435506807452e-46  1.0109327858547510e-47  -7.8352938568791844e-49  5.5618099051235085e-50  -3.6253215600281022e-51  2.2513170821090828e-52  -1.3799009766877363e-53  8.2294673452532112e-55  -4.5617491673587501e-56  2.3192258356571160e-57  -1.1490163653077063e-58  6.1536177535049493e-60  -3.6798590313399101e-61  2.3383905560727624e-62  -1.4609740219034940e-63  2.3983850622919313e-64  6.0848128748383521e-03  4.1450070378193241e-03  1.0341083943535409e-02  9.8940531505020482e-03  5.1521699435037576e-03  2.0140575977796974e-03  2.2719006148993015e-03  8.0506779909707402e-04  2.2957129040466204e-04  5.3830442809079177e-05  9.7265858802125170e-06  1.1571797572340560e-06  3.0785290068105010e-08  -2.0258197580159579e-08  -4.5079446427157469e-09  -4.0716250172710182e-10  4.1614731209624222e-12  4.7403936982332560e-12  3.6314743316704328e-13  -9.9358271090765990e-15  -2.4361391722326092e-15  -1.9594624336843033e-17  6.7919184112171012e-18  -2.4387903470909574e-19  -1.4988956066940515e-20  2.4674025386343402e-21  -7.9845277776245333e-23  -7.1477220410926858e-24  9.8905019427663443e-25  -3.8029187493404919e-26  -1.7951603345893000e-27  3.0237899049193355e-28  -1.8514955641650198e-29  4.4843697565124245e-31  3.6099385933924961e-32  -5.2536349274079355e-33  3.6182510369553812e-34  -1.7030942195031610e-35  5.2837841881305864e-37  2.5879072550488959e-39  -2.3376776971892156e-39  2.6981141407241562e-40  -2.3152663880899430e-41  1.7482933243691279e-42  -1.2775136328038847e-43  9.3497490183177616e-45  -6.4412956359206292e-46  3.8223301033406446e-47  -1.8506736350611522e-48  6.7943558044528981e-50  -7.4519204823672986e-52  -2.3273002073028231e-52  3.6030216197505420e-53  -3.5891357001118620e-54  2.9094978051310177e-55  -2.1345264961557069e-56  1.5073796023861963e-57  -1.0338911879592221e-58  6.7779865085264995e-60  -4.2529353691743680e-61  2.7544550098324339e-62  -3.1520271412377714e-63  5.6416543274986075e-03  3.9591802978948456e-03  1.0042064502292603e-02  1.0342218788627386e-02  5.6063129465458586e-03  2.2535304663090245e-03  7.8353005777089923e-04  2.1820944156574534e-04  4.6352079195899980e-05  6.3269606766762557e-06  8.0094294004224388e-08  -2.0738268790378416e-07  -5.3397411109711288e-08  -5.8668432895353308e-09  1.2441550591087682e-10  1.3140520815715345e-10  1.5789893239419910e-11  8.5891778489512737e-14  -1.5643683905388842e-13  -1.2267240284606665e-14  2.3173423919725065e-16  4.4066723756466439e-17  -2.4893998890954058e-18  -1.7711027957921316e-19  1.6949200978086086e-20  -1.6860789040197501e-23  -7.4843825485924846e-23  4.9752438960748139e-24  -2.9095074913703989e-26  -2.1002630246704533e-26  1.9727605660712766e-27  -7.0450080805836702e-29  -2.7350776357484675e-30  5.2866971150255302e-31  -3.8266175622553413e-32  1.6932321706600343e-33  -2.0464628836508342e-35  -4.6327599267986351e-36  5.7990785101652846e-37  -4.6350779492473099e-38  2.9713777507848467e-39  -1.5521272280761878e-40  6.1120244792320209e-42  -1.0284177611147323e-43  -1.2068054597267417e-44  1.8430091340642440e-45  -1.7401415603699906e-46  1.4402610483124219e-47  -1.1511351561217056e-48  8.8022567733665387e-50  -6.2467386216039731e-51  4.1539113168847885e-52  -2.6915615765197994e-53  1.7391367940925729e-54  -1.1160952438035392e-55  7.1607773741886293e-57  -4.7246996137421697e-58  3.2275680333458064e-59  -2.2120652200012616e-60  1.5136568203977566e-61  -2.0502277292126063e-62  3.6416919573551390e-03  2.8458924705464256e-03  5.6418137523149749e-03  6.0856661679067970e-03  3.9035411692112465e-03  1.6843750603457285e-03  5.8621175961369280e-04  1.5244523882825071e-04  2.4851380656387185e-05  3.9420159490457917e-08  -1.3825743112750955e-06  -4.3402034352999745e-07  -6.1969389475726141e-08  4.5332785056181586e-10  1.9794461001982924e-09  3.5866491108929950e-10  1.6365704444539633e-11  -3.8773405573033950e-12  -6.6690408826492775e-13  -2.0042392747751288e-14  3.9296576160259945e-15  2.7251076147515532e-16  -1.6151434394410399e-17  -1.1637634892205364e-18  1.0442414975897220e-19  2.1920278144603583e-21  -5.4306728586709545e-22  1.8681351895266831e-23  1.0820479194002185e-24  -1.5512516916598971e-25  7.4099827890879482e-27  3.6647764532122547e-29  -3.5387010478801420e-29  3.2369857466268784e-30  -1.6200937242113772e-31  2.1782893732035014e-33  4.8455651672355206e-34  -6.3534445913382918e-35  4.9151955336945486e-36  -2.6254891366039105e-37  8.1695199454201633e-39  1.5735802212298563e-40  -5.2434297852532183e-41  5.5816275861921253e-42  -4.3670322328465715e-43  2.8046091797764872e-44  -1.5604750752741508e-45  7.7363594374942237e-47  -3.3538752293114440e-48  1.1693437240709553e-49  -2.3953773628914175e-51  -7.1117205819848615e-53  1.2161010769441826e-53  -8.1612341679704008e-55  3.3345439932851166e-56  -9.0764714454471578e-58  3.3399905119684745e-59  -3.2146895642364033e-61  -4.6352880722184020e-61  4.9044825010995662e-62  -8.1853735296062166e-63  2.8459127065109712e-03  2.4674510583023472e-03  3.9593249918938251e-03  4.1456158628776652e-03  2.8217479938289348e-03  1.3105123650347693e-03  4.4617320582335745e-04  1.0032876727790002e-04  6.7833591966266722e-06  -5.1890138341944963e-06  -2.4612288300049721e-06  -5.2659754836338949e-07  -3.2736244975485951e-08  1.4166111565348617e-08  4.5001422710803443e-09  4.7838418228089663e-10  -3.1759212032171089e-11  -1.5149796384785799e-11  -1.4232660654702677e-12  5.7771672759981949e-14  2.0491904473476414e-14  7.7980898522618745e-16  -1.0686696733513805e-16  -6.1284980579355222e-18  5.3597893550275957e-19  1.7340259358101849e-20  -2.9881706681427206e-21  5.6251977012364381e-23  1.0350924878754313e-23  -8.3169718156151938e-25  1.3859641204740325e-26  2.1324310636543644e-27  -2.3318336148259952e-28  1.3236616332289493e-29  -3.0602581494705199e-31  -3.3569792795994380e-32  5.2764097548938897e-33  -4.0258553413857006e-34  1.8931450035127344e-35  -2.9063393098874534e-37  -5.2718649870875091e-38  7.4499974011596773e-39  -6.1546413912461343e-40  3.8035457551403276e-41  -1.8591657650547466e-42  6.4849737919108984e-44  -2.0650135071904054e-47  -2.6785726072501458e-46  3.0563625443551679e-47  -2.3795657341267792e-48  1.5292962115275662e-49  -8.8795096408251651e-51  5.0593888607859743e-52  -3.0480300993071395e-53  1.9729935080183091e-54  -1.3313242158100457e-55  9.4043275845929610e-57  -7.1545748896054019e-58  5.6825523261424124e-59  -4.4053522803996330e-60  5.2165157722561175e-61  </DataArray> 
</PointData> 
</Piece>
</UnstructuredGrid>
</VTKFile>