<?xml version="1.0"?>
<VTKFile type="UnstructuredGrid"  version="0.1"  >
<UnstructuredGrid>
<Piece  NumberOfPoints="670" NumberOfCells="1192">
<Points>
<DataArray  type="Float64"  NumberOfComponents="3"  format="ascii">0 0 0  0.04 -1.31357e-10 0  0.0400579 0.0400582 0  0 0.04 0  0.08 -2.62713e-10 0  0.080123 0.0401093 0  0.12 -3.9407e-10 0  0.120183 0.040127 0  0.16 -5.25427e-10 0  0.160176 0.0400597 0  0.2 -6.56784e-10 0  0.199997 0.0399142 0  0.24 -7.8814e-10 0  0.239816 0.0400642 0  0.28 -9.19497e-10 0  0.279804 0.0401377 0  0.32 -1.05085e-09 0  0.319855 0.0401297 0  0.36 -1.18221e-09 0  0.359906 0.0400945 0  0.4 -1.31357e-09 0  0.399941 0.0400609 0  0.44 -1.44492e-09 0  0.439962 0.0400367 0  0.48 -1.57628e-09 0  0.479975 0.0400214 0  0.52 -1.70764e-09 0  0.519983 0.0400122 0  0.5600000000000001 -1.83899e-09 0  0.559987 0.0400069 0  0.6 -1.97035e-09 0  0.59999 0.040004 0  0.64 -2.10171e-09 0  0.639993 0.0400023 0  0.68 -2.23306e-09 0  0.679994 0.0400013 0  0.72 -2.36442e-09 0  0.7199950000000001 0.0400008 0  0.76 -2.49578e-09 0  0.759996 0.0400005 0  0.8 -2.62713e-09 0  0.799997 0.0400002 0  0.84 -2.75849e-09 0  0.839997 0.0400001 0  0.88 -2.88985e-09 0  0.8799979999999999 0.04 0  0.92 -3.0212e-09 0  0.919999 0.0399999 0  0.96 -3.15256e-09 0  0.959999 0.0399998 0  1 -3.28392e-09 0  1 0.0399998 0  1.04 -3.41527e-09 0  1.04 0.0399998 0  1.08 -3.54663e-09 0  1.08 0.0399998 0  1.12 -3.67799e-09 0  1.12 0.0399998 0  1.16 -3.80934e-09 0  1.16 0.0399999 0  1.2 -3.9407e-09 0  1.2 0.04 0  1.24 -4.07206e-09 0  1.24 0.04 0  1.28 -4.20341e-09 0  1.28 0.0400001 0  1.32 -4.33477e-09 0  1.32 0.0400001 0  1.36 -4.46613e-09 0  1.36 0.04 0  1.4 -4.59748e-09 0  1.4 0.04 0  1.44 -4.72884e-09 0  1.44 0.04 0  1.48 -4.8602e-09 0  1.48 0.04 0  1.52 -4.99156e-09 0  1.52 0.04 0  1.56 -5.12291e-09 0  1.56 0.04 0  1.6 -5.25427e-09 0  1.6 0.0400001 0  1.64 -5.38563e-09 0  1.64 0.0400001 0  1.68 -5.51698e-09 0  1.68 0.04 0  1.72 -5.64834e-09 0  1.72 0.04 0  1.76 -5.7797e-09 0  1.76 0.04 0  1.8 -5.91105e-09 0  1.8 0.04 0  1.84 -6.04241e-09 0  1.84 0.04 0  1.88 -6.17377e-09 0  1.88 0.0400001 0  1.92 -6.30512e-09 0  1.92 0.0400001 0  1.96 -6.43648e-09 0  1.96 0.0400001 0  2 -6.56784e-09 0  2 0.0400001 0  2.04 -6.69919e-09 0  2.04 0.0400001 0  2.08 -6.83055e-09 0  2.08 0.04 0  2.12 -6.96191e-09 0  2.12 0.04 0  2.16 -7.09326e-09 0  2.16 0.0400001 0  2.2 -7.22462e-09 0  2.2 0.04 0  2.24 -7.35598e-09 0  2.24 0.04 0  2.28 -7.48733e-09 0  2.28 0.0399999 0  2.32 -7.618690000000001e-09 0  2.32 0.04 0  2.36 -7.750049999999999e-09 0  2.36 0.04 0  2.4 -7.8814e-09 0  2.4 0.04 0  0.0401088 0.0801235 0  0 0.08 0  0.0802509 0.0802518 0  0.120434 0.0803392 0  0.160522 0.0801977 0  0.199995 0.0795328 0  0.239464 0.0802049 0  0.279544 0.08035689999999999 0  0.319711 0.0802867 0  0.359828 0.08018740000000001 0  0.399896 0.0801123 0  0.439933 0.0800646 0  0.479955 0.0800365 0  0.519968 0.08002049999999999 0  0.559976 0.0800116 0  0.599982 0.0800066 0  0.6399860000000001 0.0800039 0  0.679989 0.0800023 0  0.719991 0.0800014 0  0.759992 0.0800008 0  0.799994 0.0800004 0  0.839995 0.08000019999999999 0  0.879996 0.0799999 0  0.919997 0.07999970000000001 0  0.959999 0.0799996 0  1 0.0799995 0  1.04 0.0799995 0  1.08 0.0799996 0  1.12 0.07999970000000001 0  1.16 0.0799998 0  1.2 0.08 0  1.24 0.0800001 0  1.28 0.0800001 0  1.32 0.0800001 0  1.36 0.08 0  1.4 0.0799999 0  1.44 0.0799999 0  1.48 0.0799999 0  1.52 0.0799999 0  1.56 0.08 0  1.6 0.0800001 0  1.64 0.0800001 0  1.68 0.08 0  1.72 0.0799999 0  1.76 0.0799999 0  1.8 0.0799999 0  1.84 0.0799999 0  1.88 0.08 0  1.92 0.0800001 0  1.96 0.0800001 0  2 0.0800001 0  2.04 0.08 0  2.08 0.0799999 0  2.12 0.0799999 0  2.16 0.08 0  2.2 0.08 0  2.24 0.0799999 0  2.28 0.0799998 0  2.32 0.0799999 0  2.36 0.0799999 0  2.4 0.08 0  0.0401262 0.120184 0  0 0.12 0  0.0803378 0.120435 0  0.120779 0.12078 0  0.161485 0.120859 0  0.199996 0.117814 0  0.238503 0.120866 0  0.279195 0.120798 0  0.319616 0.120473 0  0.359799 0.120256 0  0.39988 0.120136 0  0.439921 0.120073 0  0.479944 0.120039 0  0.519958 0.120022 0  0.5599690000000001 0.120012 0  0.599976 0.120007 0  0.639981 0.120004 0  0.679985 0.120002 0  0.719987 0.120002 0  0.7599900000000001 0.120001 0  0.799991 0.12 0  0.839993 0.12 0  0.879995 0.12 0  0.919996 0.12 0  0.959998 0.119999 0  1 0.119999 0  1.04 0.119999 0  1.08 0.119999 0  1.12 0.12 0  1.16 0.12 0  1.2 0.12 0  1.24 0.12 0  1.28 0.12 0  1.32 0.12 0  1.36 0.12 0  1.4 0.12 0  1.44 0.12 0  1.48 0.12 0  1.52 0.12 0  1.56 0.12 0  1.6 0.12 0  1.64 0.12 0  1.68 0.12 0  1.72 0.12 0  1.76 0.12 0  1.8 0.12 0  1.84 0.12 0  1.88 0.12 0  1.92 0.12 0  1.96 0.12 0  2 0.12 0  2.04 0.12 0  2.08 0.12 0  2.12 0.12 0  2.16 0.12 0  2.2 0.12 0  2.24 0.12 0  2.28 0.12 0  2.32 0.12 0  2.36 0.12 0  2.4 0.12 0  0.0400582 0.160177 0  0 0.16 0  0.0801954 0.160525 0  0.120857 0.161488 0  0.164645 0.164645 0  0.2 0.15 0  0.235355 0.164645 0  0.279119 0.161498 0  0.319759 0.16055 0  0.359874 0.160228 0  0.399906 0.160104 0  0.439925 0.160051 0  0.479941 0.160027 0  0.519954 0.160014 0  0.559964 0.160008 0  0.5999719999999999 0.160005 0  0.639978 0.160003 0  0.679982 0.160002 0  0.719985 0.160001 0  0.759988 0.160001 0  0.79999 0.16 0  0.839992 0.16 0  0.8799940000000001 0.16 0  0.919996 0.159999 0  0.959998 0.159999 0  1 0.159999 0  1.04 0.159999 0  1.08 0.159999 0  1.12 0.16 0  1.16 0.16 0  1.2 0.16 0  1.24 0.16 0  1.28 0.16 0  1.32 0.16 0  1.36 0.16 0  1.4 0.16 0  1.44 0.16 0  1.48 0.16 0  1.52 0.16 0  1.56 0.16 0  1.6 0.16 0  1.64 0.16 0  1.68 0.16 0  1.72 0.16 0  1.76 0.16 0  1.8 0.16 0  1.84 0.16 0  1.88 0.16 0  1.92 0.16 0  1.96 0.16 0  2 0.16 0  2.04 0.16 0  2.08 0.16 0  2.12 0.16 0  2.16 0.16 0  2.2 0.16 0  2.24 0.16 0  2.28 0.16 0  2.32 0.16 0  2.36 0.16 0  2.4 0.16 0  0.0399111 0.2 0  0 0.2 0  0.0795281 0.2 0  0.117811 0.2 0  0.15 0.2 0  0.282167 0.2 0  0.25 0.2 0  0.320429 0.2 0  0.36003 0.200001 0  0.399944 0.200001 0  0.439934 0.200001 0  0.479942 0.200001 0  0.519953 0.200001 0  0.559963 0.200001 0  0.59997 0.200001 0  0.639976 0.200001 0  0.6799809999999999 0.200001 0  0.719984 0.200001 0  0.759987 0.200001 0  0.799989 0.2 0  0.839991 0.2 0  0.879993 0.2 0  0.919996 0.199999 0  0.959998 0.199999 0  1 0.199999 0  1.04 0.199999 0  1.08 0.199999 0  1.12 0.2 0  1.16 0.2 0  1.2 0.2 0  1.24 0.2 0  1.28 0.2 0  1.32 0.2 0  1.36 0.2 0  1.4 0.2 0  1.44 0.2 0  1.48 0.2 0  1.52 0.2 0  1.56 0.2 0  1.6 0.2 0  1.64 0.2 0  1.68 0.2 0  1.72 0.2 0  1.76 0.2 0  1.8 0.2 0  1.84 0.2 0  1.88 0.2 0  1.92 0.2 0  1.96 0.2 0  2 0.2 0  2.04 0.2 0  2.08 0.2 0  2.12 0.2 0  2.16 0.2 0  2.2 0.2 0  2.24 0.2 0  2.28 0.2 0  2.32 0.2 0  2.36 0.2 0  2.4 0.2 0  0.0400582 0.239823 0  0 0.24 0  0.0801953 0.239475 0  0.120857 0.238513 0  0.164645 0.235355 0  0.279119 0.238502 0  0.235355 0.235355 0  0.319759 0.239451 0  0.359873 0.239774 0  0.399905 0.239898 0  0.439925 0.239951 0  0.479941 0.239976 0  0.519954 0.239988 0  0.559964 0.239994 0  0.5999719999999999 0.239997 0  0.639977 0.239999 0  0.679982 0.24 0  0.719985 0.24 0  0.759987 0.24 0  0.79999 0.24 0  0.839992 0.24 0  0.8799940000000001 0.24 0  0.919996 0.239999 0  0.959998 0.239999 0  1 0.239999 0  1.04 0.239999 0  1.08 0.239999 0  1.12 0.24 0  1.16 0.24 0  1.2 0.24 0  1.24 0.24 0  1.28 0.24 0  1.32 0.24 0  1.36 0.24 0  1.4 0.24 0  1.44 0.24 0  1.48 0.24 0  1.52 0.24 0  1.56 0.24 0  1.6 0.24 0  1.64 0.24 0  1.68 0.24 0  1.72 0.24 0  1.76 0.24 0  1.8 0.24 0  1.84 0.24 0  1.88 0.24 0  1.92 0.24 0  1.96 0.24 0  2 0.24 0  2.04 0.24 0  2.08 0.24 0  2.12 0.24 0  2.16 0.24 0  2.2 0.24 0  2.24 0.24 0  2.28 0.24 0  2.32 0.24 0  2.36 0.24 0  2.4 0.24 0  0.0401261 0.279816 0  0 0.28 0  0.0803376 0.279565 0  0.120778 0.27922 0  0.161485 0.279141 0  0.2 0.25 0  0.199996 0.282186 0  0.238503 0.279135 0  0.279195 0.279202 0  0.319616 0.279528 0  0.359799 0.279745 0  0.39988 0.279865 0  0.43992 0.279929 0  0.479944 0.279962 0  0.519958 0.27998 0  0.559968 0.27999 0  0.599976 0.279995 0  0.639981 0.279998 0  0.679984 0.279999 0  0.719987 0.28 0  0.759989 0.28 0  0.799991 0.28 0  0.839993 0.28 0  0.879995 0.28 0  0.919997 0.279999 0  0.959998 0.279999 0  1 0.279999 0  1.04 0.279999 0  1.08 0.28 0  1.12 0.28 0  1.16 0.28 0  1.2 0.28 0  1.24 0.28 0  1.28 0.28 0  1.32 0.28 0  1.36 0.28 0  1.4 0.28 0  1.44 0.28 0  1.48 0.28 0  1.52 0.28 0  1.56 0.28 0  1.6 0.28 0  1.64 0.28 0  1.68 0.28 0  1.72 0.28 0  1.76 0.28 0  1.8 0.28 0  1.84 0.28 0  1.88 0.28 0  1.92 0.28 0  1.96 0.28 0  2 0.28 0  2.04 0.28 0  2.08 0.28 0  2.12 0.28 0  2.16 0.28 0  2.2 0.28 0  2.24 0.28 0  2.28 0.28 0  2.32 0.28 0  2.36 0.28 0  2.4 0.28 0  0.0401086 0.319877 0  0 0.32 0  0.08025060000000001 0.319748 0  0.120433 0.319661 0  0.160522 0.319802 0  0.199995 0.320467 0  0.239464 0.319795 0  0.279543 0.319643 0  0.31971 0.319714 0  0.359828 0.319813 0  0.399895 0.319889 0  0.439933 0.319937 0  0.479955 0.319965 0  0.519968 0.319981 0  0.559976 0.31999 0  0.599982 0.319995 0  0.6399860000000001 0.319998 0  0.679989 0.319999 0  0.719991 0.32 0  0.759992 0.32 0  0.799994 0.32 0  0.839995 0.32 0  0.879996 0.32 0  0.919998 0.32 0  0.959999 0.32 0  1 0.32 0  1.04 0.32 0  1.08 0.32 0  1.12 0.32 0  1.16 0.32 0  1.2 0.32 0  1.24 0.32 0  1.28 0.32 0  1.32 0.32 0  1.36 0.32 0  1.4 0.32 0  1.44 0.32 0  1.48 0.32 0  1.52 0.32 0  1.56 0.32 0  1.6 0.32 0  1.64 0.32 0  1.68 0.32 0  1.72 0.32 0  1.76 0.32 0  1.8 0.32 0  1.84 0.32 0  1.88 0.32 0  1.92 0.32 0  1.96 0.32 0  2 0.32 0  2.04 0.32 0  2.08 0.32 0  2.12 0.32 0  2.16 0.32 0  2.2 0.32 0  2.24 0.32 0  2.28 0.32 0  2.32 0.32 0  2.36 0.32 0  2.4 0.32 0  0.0400579 0.359942 0  0 0.36 0  0.0801229 0.359891 0  0.120183 0.359873 0  0.160175 0.35994 0  0.199997 0.360086 0  0.239816 0.359936 0  0.279804 0.359862 0  0.319855 0.359871 0  0.359906 0.359906 0  0.399941 0.35994 0  0.439962 0.359964 0  0.479975 0.359979 0  0.5199820000000001 0.359989 0  0.559987 0.359994 0  0.59999 0.359997 0  0.639993 0.359998 0  0.679994 0.359999 0  0.7199950000000001 0.36 0  0.759996 0.36 0  0.799997 0.36 0  0.839997 0.36 0  0.8799979999999999 0.36 0  0
[...]
<PointData  Scalars="f_10391-1"> 
<DataArray  type="Float64"  Name="f_10391-1"  format="ascii">8.2317883254179464e-03  8.1803051725513991e-03  8.6339464612013150e-03  8.7312873511492164e-03  7.8917806180888363e-03  8.3104536388632529e-03  7.4091201876918663e-03  7.7773026733234593e-03  6.7658870614081537e-03  7.0578377761040308e-03  6.0263044027452570e-03  6.2384670839689673e-03  5.2734988773187200e-03  5.4317094851216293e-03  4.5583305840871486e-03  4.6853540370984069e-03  3.8906943226651156e-03  3.9947845645519646e-03  3.2714645123022956e-03  3.3549222704156029e-03  2.7044279079858117e-03  2.7690972250441147e-03  2.1955334148148187e-03  2.2440231921987490e-03  1.7497036019590488e-03  1.7850328638748722e-03  1.3688772141521050e-03  1.3939932063421062e-03  1.0515903942023188e-03  1.0690692029630155e-03  7.9350659110000729e-04  8.0542431391079558e-04  5.8832647070479948e-04  5.9628870577998940e-04  4.2872605156810280e-04  4.3394368576994539e-04  3.0714772129569767e-04  3.1049437031708383e-04  2.1637820511856984e-04  2.1847537590702221e-04  1.4991758359950933e-04  1.5119799821289176e-04  1.0216936284684417e-04  1.0292906174021200e-04  6.8494971556298207e-05  6.8929329051835072e-05  4.5174440962151537e-05  4.5411769149084941e-05  2.9311377817104467e-05  2.9433667697626932e-05  1.8710775691100144e-05  1.8768074396331493e-05  1.1750362419710046e-05  1.1773123796623811e-05  7.2593604079456127e-06  7.2649902804538210e-06  4.4117302809315348e-06  4.4098256822415546e-06  2.6372543406036716e-06  2.6327872427174963e-06  1.5505662817207598e-06  1.5458840635411575e-06  8.9656358943904235e-07  8.9260276316367896e-07  5.0977267350523509e-07  5.0676655824848568e-07  2.8498641137665947e-07  2.8285871033810698e-07  1.5662710539552333e-07  1.5519653495915834e-07  8.4614296889950910e-08  8.3691215178436745e-08  4.4925123240634837e-08  4.4349960880729404e-08  2.3438723933526578e-08  2.3091268951931642e-08  1.2014453063236796e-08  1.1810400825648318e-08  6.0495235517526848e-09  5.9328051269132063e-09  2.9915940986373817e-09  2.9264780906815641e-09  1.4526484730581895e-09  1.4171826853307698e-09  6.9247071681582871e-10  6.7359904359140759e-10  3.2398602444196319e-10  3.1417034052044051e-10  1.4874058875909375e-10  1.4374830301664660e-10  6.6988191246548189e-11  6.4504738304777972e-11  2.9587731388901175e-11  2.8379202242237928e-11  1.2812681163936034e-11  1.2237319960658347e-11  5.4380487451624563e-12  5.1700659240200455e-12  2.2613574144786226e-12  2.1392516445728223e-12  9.2098671442653173e-13  8.6656354546922515e-13  3.6721061106983310e-13  3.4348677916711226e-13  1.4327038300990490e-13  1.3315815012362508e-13  5.4671134662726685e-14  5.0457436307994756e-14  2.0392802227653395e-14  1.8676850784590190e-14  7.4308967604199997e-15  6.7482356471786952e-15  2.6434065726008968e-15  2.3782119967601010e-15  9.1777329420289503e-16  8.1724619368990064e-16  3.1268258768421205e-16  2.7545187139009004e-16  1.1187828794935553e-16  9.7489379926166165e-17  6.9301382743140092e-17  5.6743496617737037e-17  1.0020650481373062e-02  1.0138740926977374e-02  9.6322510345800017e-03  8.9593537170033089e-03  7.9788491701430798e-03  6.8675144233315971e-03  5.8925962852194608e-03  5.0635921350227582e-03  4.3096075835239219e-03  3.6084344535604377e-03  2.9654763587476630e-03  2.3912416912457053e-03  1.8925451063941401e-03  1.4708740699470976e-03  1.1230737396129666e-03  8.4276656061559301e-04  6.2174140177838040e-04  4.5104550853694884e-04  3.2182715777897083e-04  2.2588135913081925e-04  1.5596654029556296e-04  1.0595343100899074e-04  7.0818204649515093e-05  4.6572272335997978e-05  3.0133776478575767e-05  1.9183123471951744e-05  1.2014442789427508e-05  7.4023987370536456e-06  4.4863192430061683e-06  2.6743275405091556e-06  1.5678277989737155e-06  9.0383437669586616e-07  5.1230514985718918e-07  2.8546712359241486e-07  1.5635241747942708e-07  8.4159565496575703e-08  4.4512049884768822e-08  2.3128482610654128e-08  1.1803956955594757e-08  5.9160171086758213e-09  2.9111019795598019e-09  1.4060820730993187e-09  6.6647161726324829e-10  3.0992425013598147e-10  1.4135445079455077e-10  6.3213725057220560e-11  2.7708877729564604e-11  1.1900849928859598e-11  5.0063471606347561e-12  2.0618862134867264e-12  8.3101313735155481e-13  3.2758802522861663e-13  1.2623432042876475e-13  4.7520193095779066e-14  1.7462897177120359e-14  6.2594468793010820e-15  2.1865016057518598e-15  7.4397141937955555e-16  2.4793521359028349e-16  8.6428626725127442e-17  4.9163508835368065e-17  1.2469090268559885e-02  1.2582728794442133e-02  1.2040044238432690e-02  1.1176064735556561e-02  9.6443782913211221e-03  7.7949783962153376e-03  6.5847354125510797e-03  5.6857230618791955e-03  4.8413697324574756e-03  4.0340617871197767e-03  3.2905948043524457e-03  2.6317453960084283e-03  2.0664199577811889e-03  1.5943641467799181e-03  1.2094589022481320e-03  9.0240149288925073e-04  6.6239036851278843e-04  4.7841054730168511e-04  3.4002478487925514e-04  2.3782568529069184e-04  1.6370906409614083e-04  1.1090350637056060e-04  7.3939102375153993e-05  4.8512131839619129e-05  3.1321534798722363e-05  1.9898920643477281e-05  1.2438984910445408e-05  7.6499646193945362e-06  4.6281528985064834e-06  2.7540886857669023e-06  1.6118151965977419e-06  9.2759798430898345e-07  5.2486473296693948e-07  2.9195081411252627e-07  1.5961518978630271e-07  8.5755945178296375e-08  4.5268768142642842e-08  2.3474260702986100e-08  1.1955106799104208e-08  5.9784347151949003e-09  2.9348947642739786e-09  1.4140370461659778e-09  6.6846303205252186e-10  3.0996996839202255e-10  1.4094703009992520e-10  6.2826786504349039e-11  2.7443116326747906e-11  1.1742365673743421e-11  4.9196058531714883e-12  2.0172460332005202e-12  8.0913675142150379e-13  3.1730428060810923e-13  1.2157609967846508e-13  4.5481116828366353e-14  1.6598722557383275e-14  5.9044338768184148e-15  2.0450168169545291e-15  6.8919007586981790e-16  2.2711393334753573e-16  7.7995639411477982e-17  4.3751514065293240e-17  1.6106785122746013e-02  1.6151335878051690e-02  1.5781853262918179e-02  1.4870046716503049e-02  1.2696303035599417e-02  8.5222202497279333e-03  7.3054456530114052e-03  6.5899196666987046e-03  5.6168565787649682e-03  4.6350969283414948e-03  3.7359755184374027e-03  2.9537757530065803e-03  2.2954944879972038e-03  1.7552276049564439e-03  1.3211690564136304e-03  9.7913112574756519e-04  7.1452552906494673e-04  5.1345002490067499e-04  3.6330437714529980e-04  2.5311344690425868e-04  1.7362464697035187e-04  1.1725420498707910e-04  7.7953062180369595e-05  5.1013888676733013e-05  3.2859010528260370e-05  2.0829831415269439e-05  1.2994027954909353e-05  7.9756476070259640e-06  4.8161046451244293e-06  2.8606989089237884e-06  1.6712096289562201e-06  9.6007328196500334e-07  5.4227675018832679e-07  3.0109635558021649e-07  1.6431563347254758e-07  8.8116676181858897e-08  4.6425426202684089e-08  2.4025944181489384e-08  1.2210545284331970e-08  6.0928084029533678e-09  2.9841435323506287e-09  1.4342564224601540e-09  6.7626435328720628e-10  3.1272170184057029e-10  1.4177871656596140e-10  6.2997643749667539e-11  2.7424203562828284e-11  1.1691276149853449e-11  4.8787989430991609e-12  1.9919217454164812e-12  7.9524687803654740e-13  3.1026757696521853e-13  1.1821610531786320e-13  4.3952483298337740e-14  1.5931906585360498e-14  5.6244518308365734e-15  1.9315759655679913e-15  6.4471823555794029e-16  2.1005597859925279e-16  7.1069290833839357e-17  3.9369391347729430e-17  2.0947448308151550e-02  2.0776813674240727e-02  2.1006362278704144e-02  2.0286435488326131e-02  1.9446437467365414e-02  8.0007607933074223e-03  8.8337855605086363e-03  6.6861227897133096e-03  5.4023747281549180e-03  4.2782928401545618e-03  3.3345499906845631e-03  2.5613261710851036e-03  1.9396271283263554e-03  1.4481320787399431e-03  1.0658364025150639e-03  7.7319803585134100e-04  5.5276015233007966e-04  3.8936978061063714e-04  2.7020472701202167e-04  1.8470075851847716e-04  1.2434412284568176e-04  8.2433139349517129e-05  5.3806301661295518e-05  3.4575554739931956e-05  2.1869715991713211e-05  1.3614514291279868e-05  8.3400941891982718e-06  5.0266904841099198e-06  2.9803306808906793e-06  1.7379822270705093e-06  9.9666422462104175e-07  5.6194798728289363e-07  3.1146187390866119e-07  1.6966392709445738e-07  9.0815618463023481e-08  4.7755612396014098e-08  2.4665109151350002e-08  1.2509308259256301e-08  6.2282560086361752e-09  3.0434594920047183e-09  1.4591986999043329e-09  6.8624169511249884e-10  3.1645819174760502e-10  1.4304825575717396e-10  6.3359864952115788e-11  2.7487550674429118e-11  1.1674992524834536e-11  4.8525034543054668e-12  1.9725662117096360e-12  7.8378219306933100e-13  3.0420570007014583e-13  1.1524427168269622e-13  4.2577131332810835e-14  1.5325167203057115e-14  5.3678467489546714e-15  1.8271633822642190e-15  6.0370966928046741e-16  1.9433689997653963e-16  6.4721159185223407e-17  3.5373054933307271e-17  2.6876219865382241e-02  2.6030602375298181e-02  2.7975502081478042e-02  2.6597586286288548e-02  2.4100291893196905e-02  1.0206145791524610e-02  1.3547221240129102e-02  8.0062918871072718e-03  6.2666580592705039e-03  4.8635925544644083e-03  3.7359467023238184e-03  2.8374955074638554e-03  2.1293148204153361e-03  1.5778242550490678e-03  1.1539201584939763e-03  8.3256266586406637e-04  5.9240579661231447e-04  4.1558482100202357e-04  2.8735661846738202e-04  1.9579169215673748e-04  1.3143007713213497e-04  8.6902667668833268e-05  5.6588427977801820e-05  3.6282807457987438e-05  2.2902101959177011e-05  1.4229342754870065e-05  8.7004693517725468e-06  5.2344483224098394e-06  3.0980573983268703e-06  1.8035052260075526e-06  1.0324552407317673e-06  5.8111877425077835e-07  3.2152113489014117e-07  1.7482879623369079e-07  9.3407011609808424e-08  4.9024054655387058e-08  2.5269566769973315e-08  1.2788970393807640e-08  6.3534135354820738e-09  3.0973502336547117e-09  1.4813425353016285e-09  6.9480728336129235e-10  3.1949844221013774e-10  1.4398229564588838e-10  6.3564219786909658e-11  2.7478414417992659e-11  1.1626262647931147e-11  4.8120626985627090e-12  1.9472124825768035e-12  7.6984748977773699e-13  2.9715809425028213e-13  1.1189222937683264e-13  4.1060559634729498e-14  1.4668183441854629e-14  5.0942549225709941e-15  1.7173662049457230e-15  5.6114301420636386e-16  1.7823732543204758e-16  5.8323389294267085e-17  3.1382284001141911e-17  3.2196488501378781e-02  3.0523839476186070e-02  3.5681721357865778e-02  3.3890191033383942e-02  2.7156063926703763e-02  2.0277794208967023e-02  2.1359037440096578e-02  1.6024500718508895e-02  1.2062325111223572e-02  9.2171030759025732e-03  7.0712088146567629e-03  5.4083200332480522e-03  4.1081676432621573e-03  3.0924170539925124e-03  2.3036369061691661e-03  1.6965075398720157e-03  1.2342188054425027e-03  8.8647918711552253e-04  6.2830249616161122e-04  4.3924667677940928e-04  3.0278812241056147e-04  2.0574264263196221e-04  1.3776764744981231e-04  9.0886812391008913e-05  5.9058999742452658e-05  3.7793315653595502e-05  2.3811535872806106e-05  1.4768310905951539e-05  9.0146446131990434e-06  5.4144331467324869e-06  3.1993167492077769e-06  1.8593983031636114e-06  1.0626939205935433e-06  5.9713427345082523e-07  3.2981368951327465e-07  1.7901935140741832e-07  9.5469369846558961e-08  5.0009777149089215e-08  2.5725381855585475e-08  1.2991778567722435e-08  6.4395105228238425e-09  3.1317352799862318e-09  1.4939204565156424e-09  6.9876807487973400e-10  3.2036411781379919e-10  1.4390949798858905e-10  6.3311820322090291e-11  2.7266401544261750e-11  1.1489375289665070e-11  4.7341790211030865e-12  1.9063309262955423e-12  7.4963288058203616e-13  2.8763724706672203e-13  1.0759333442679346e-13  3.9192395977541565e-14  1.3884931930711862e-14  4.7769743621717514e-15  1.5930849561468751e-15  5.1401447760453011e-16  1.6079256011121438e-16  5.1552925954388702e-17  2.7218554573152590e-17  3.4000372229853942e-02  3.2598728936680685e-02  3.7500234513520754e-02  3.6153568895422983e-02  2.8949215180850092e-02  2.2353479314755845e-02  1.7191158284616193e-02  1.3153768857790704e-02  1.0059944004048626e-02  7.6785545217929636e-03  5.8346252379193391e-03  4.4038101866864642e-03  3.2959721704272534e-03  2.4428896169301508e-03  1.7911611337916469e-03  1.2980941605131194e-03  9.2922790893649966e-04  6.5664707903683350e-04  4.5785535147909075e-04  3.1487152767340761e-04  2.1349387148496496e-04  1.4267791907485235e-04  9.3955279284987150e-05  6.0948288909849278e-05  3.8938749687736822e-05  2.4495024257238218e-05  1.5169033682260489e-05  9.2453187046966451e-06  5.5446715915287836e-06  3.2713381476508084e-06  1.8983476715362849e-06  1.0832542852121798e-06  6.0770258196728469e-07  3.3508645204011856e-07  1.8156151255483429e-07  9.6646063493357246e-08  5.0527287905821476e-08  2.5937743955142374e-08  1.3070130712990899e-08  6.4630809272908712e-09  3.1352620882454968e-09  1.4915452256052034e-09  6.9561783786225223e-10  3.1791287109775553e-10  1.4232005133418194e-10  6.2380062022747614e-11  2.6756493828757841e-11  1.1224720094575631e-11  4.6027441053217664e-12  1.8435396517818208e-12  7.2067912897401064e-13  2.7472328700381779e-13  1.0201445805596961e-13  3.6856232991008762e-14  1.2936346071729946e-14  4.4034981669982251e-15  1.4505403289460992e-15  4.6126631758236435e-16  1.4174002287609218e-16  4.4357260171255917e-17  2.2853526159221706e-17  3.3275761091365395e-02  3.2750848657695279e-02  3.4318929506253183e-02  3.2968527653120076e-02  2.8105177959654684e-02  2.2483366860873603e-02  1.7666432551995997e-02  1.3698614850885289e-02  1.0531675845503439e-02  8.0418500085021501e-03  6.0989118743439126e-03  4.5904334319179611e-03  3.4254410155312867e-03  2.5316403128220603e-03  1.8513823840101942e-03  1.3385838956544763e-03  9.5617579214024020e-04  6.7440267549341516e-04  4.6941782971909423e-04  3.2230462285734918e-04  2.1820936438785151e-04  1.4562555613366527e-04  9.5767478653718610e-05  6.2043747504763290e-05  3.9588115965824428e-05  2.4872337211708289e-05  1.5383158894189867e-05  9.3637665655938724e-06  5.6083123817425312e-06  3.3043873812779906e-06  1.9148149589615511e-06  1.0910342379630725e-06  6.1111405279751625e-07  3.3641275952641439e-07  1.8196155642399468e-07  9.6678648686847061e-08  5.0443745771034914e-08  2.5839644549652283e-08  1.2990876747867702e-08  6.4080518086711038e-09  3.1002988778031106e-09  1.4706712068876883e-09  6.8374645432296680e-10  3.1143087268482414e-10  1.3890544215738903e-10  6.0639191694425726e-11  2.5895708516423888e-11  1.0811355048997250e-11  4.4097783689610287e-12  1.7559250109478763e-12  6.8197603474582887e-13  2.5808874089243364e-13  9.5059256192161817e-14  3.4028109451497680e-14  1.1818575961592213e-14  3.9743931058303334e-15  1.2906772813350639e-15  4.0350472772108836e-16  1.2140050196586198e-16  3.6907443449807114e-17  1.8299259854138168e-17  3.2860965841208699e-02  3.2672400110372576e-02  3.3022715536184487e-02  3.1390461507099905e-02  2.7338454832964296e-02  2.2373595150532999e-02  1.7757158281321586e-02  1.3844652355250599e-02  1.0672045709683702e-02  8.1558247148548740e-03  6.1841363558370437e-03  4.6512916716424891e-03  3.4676984513072012e-03  2.5603782855293075e-03  1.8706135503656557e-03  1.3512442512600912e-03  9.6437766494406030e-04  6.7960845921736731e-04  4.7265075258284871e-04  3.2426121766873195e-04  2.1935667444348839e-04  1.4627033681788396e-04  9.6111312900217267e-05  6.2212961408913330e-05  3.9660553752209299e-05  2.4894164996588474e-05  1.5381201351642882e-05  9.3526023717882678e-06  5.5952690828215659e-06  3.2927035840665507e-06  1.9055640073484418e-06  1.0842470663395693e-06  6.0639988176204062e-07  3.3327712049279150e-07  1.7995056341249890e-07  9.5429721396404069e-08  4.9690468720695515e-08  2.5397544890400790e-08  1.2738044358283919e-08  6.2670208696442276e-09  3.0235166682264687e-09  1.4298512369180749e-09  6.6254919583094747e-10  3.0067729130645042e-10  1.3357557005729925e-10  5.8058396970694797e-11  2.4675008104592833e-11  1.0247464157057411e-11  4.1554533825426270e-12  1.6439724474687854e-12  6.3389911881696614e-13  2.3795785421965015e-13  8.6845659493357393e-14  3.0765126211268333e-14  1.0557591880030796e-14  3.5008715534768565e-15  1.1181237960928264e-15  3.4258282257446815e-16  1.0055058024573966e-16  2.9605854740156838e-17  1.3196530148495533e-17  </DataArray> 
</PointData> 
</Piece>
</UnstructuredGrid>
</VTKFile>