<?xml version="1.0"?>
<VTKFile type="UnstructuredGrid"  version="0.1"  >
<UnstructuredGrid>
<Piece  NumberOfPoints="670" NumberOfCells="1192">
<Points>
<DataArray  type="Float64"  NumberOfComponents="3"  format="ascii">0 0 0  0.04 -1.31357e-10 0  0.0400579 0.0400582 0  0 0.04 0  0.08 -2.62713e-10 0  0.080123 0.0401093 0  0.12 -3.9407e-10 0  0.120183 0.040127 0  0.16 -5.25427e-10 0  0.160176 0.0400597 0  0.2 -6.56784e-10 0  0.199997 0.0399142 0  0.24 -7.8814e-10 0  0.239816 0.0400642 0  0.28 -9.19497e-10 0  0.279804 0.0401377 0  0.32 -1.05085e-09 0  0.319855 0.0401297 0  0.36 -1.18221e-09 0  0.359906 0.0400945 0  0.4 -1.31357e-09 0  0.399941 0.0400609 0  0.44 -1.44492e-09 0  0.439962 0.0400367 0  0.48 -1.57628e-09 0  0.479975 0.0400214 0  0.52 -1.70764e-09 0  0.519983 0.0400122 0  0.5600000000000001 -1.83899e-09 0  0.559987 0.0400069 0  0.6 -1.97035e-09 0  0.59999 0.040004 0  0.64 -2.10171e-09 0  0.639993 0.0400023 0  0.68 -2.23306e-09 0  0.679994 0.0400013 0  0.72 -2.36442e-09 0  0.7199950000000001 0.0400008 0  0.76 -2.49578e-09 0  0.759996 0.0400005 0  0.8 -2.62713e-09 0  0.799997 0.0400002 0  0.84 -2.75849e-09 0  0.839997 0.0400001 0  0.88 -2.88985e-09 0  0.8799979999999999 0.04 0  0.92 -3.0212e-09 0  0.919999 0.0399999 0  0.96 -3.15256e-09 0  0.959999 0.0399998 0  1 -3.28392e-09 0  1 0.0399998 0  1.04 -3.41527e-09 0  1.04 0.0399998 0  1.08 -3.54663e-09 0  1.08 0.0399998 0  1.12 -3.67799e-09 0  1.12 0.0399998 0  1.16 -3.80934e-09 0  1.16 0.0399999 0  1.2 -3.9407e-09 0  1.2 0.04 0  1.24 -4.07206e-09 0  1.24 0.04 0  1.28 -4.20341e-09 0  1.28 0.0400001 0  1.32 -4.33477e-09 0  1.32 0.0400001 0  1.36 -4.46613e-09 0  1.36 0.04 0  1.4 -4.59748e-09 0  1.4 0.04 0  1.44 -4.72884e-09 0  1.44 0.04 0  1.48 -4.8602e-09 0  1.48 0.04 0  1.52 -4.99156e-09 0  1.52 0.04 0  1.56 -5.12291e-09 0  1.56 0.04 0  1.6 -5.25427e-09 0  1.6 0.0400001 0  1.64 -5.38563e-09 0  1.64 0.0400001 0  1.68 -5.51698e-09 0  1.68 0.04 0  1.72 -5.64834e-09 0  1.72 0.04 0  1.76 -5.7797e-09 0  1.76 0.04 0  1.8 -5.91105e-09 0  1.8 0.04 0  1.84 -6.04241e-09 0  1.84 0.04 0  1.88 -6.17377e-09 0  1.88 0.0400001 0  1.92 -6.30512e-09 0  1.92 0.0400001 0  1.96 -6.43648e-09 0  1.96 0.0400001 0  2 -6.56784e-09 0  2 0.0400001 0  2.04 -6.69919e-09 0  2.04 0.0400001 0  2.08 -6.83055e-09 0  2.08 0.04 0  2.12 -6.96191e-09 0  2.12 0.04 0  2.16 -7.09326e-09 0  2.16 0.0400001 0  2.2 -7.22462e-09 0  2.2 0.04 0  2.24 -7.35598e-09 0  2.24 0.04 0  2.28 -7.48733e-09 0  2.28 0.0399999 0  2.32 -7.618690000000001e-09 0  2.32 0.04 0  2.36 -7.750049999999999e-09 0  2.36 0.04 0  2.4 -7.8814e-09 0  2.4 0.04 0  0.0401088 0.0801235 0  0 0.08 0  0.0802509 0.0802518 0  0.120434 0.0803392 0  0.160522 0.0801977 0  0.199995 0.0795328 0  0.239464 0.0802049 0  0.279544 0.08035689999999999 0  0.319711 0.0802867 0  0.359828 0.08018740000000001 0  0.399896 0.0801123 0  0.439933 0.0800646 0  0.479955 0.0800365 0  0.519968 0.08002049999999999 0  0.559976 0.0800116 0  0.599982 0.0800066 0  0.6399860000000001 0.0800039 0  0.679989 0.0800023 0  0.719991 0.0800014 0  0.759992 0.0800008 0  0.799994 0.0800004 0  0.839995 0.08000019999999999 0  0.879996 0.0799999 0  0.919997 0.07999970000000001 0  0.959999 0.0799996 0  1 0.0799995 0  1.04 0.0799995 0  1.08 0.0799996 0  1.12 0.07999970000000001 0  1.16 0.0799998 0  1.2 0.08 0  1.24 0.0800001 0  1.28 0.0800001 0  1.32 0.0800001 0  1.36 0.08 0  1.4 0.0799999 0  1.44 0.0799999 0  1.48 0.0799999 0  1.52 0.0799999 0  1.56 0.08 0  1.6 0.0800001 0  1.64 0.0800001 0  1.68 0.08 0  1.72 0.0799999 0  1.76 0.0799999 0  1.8 0.0799999 0  1.84 0.0799999 0  1.88 0.08 0  1.92 0.0800001 0  1.96 0.0800001 0  2 0.0800001 0  2.04 0.08 0  2.08 0.0799999 0  2.12 0.0799999 0  2.16 0.08 0  2.2 0.08 0  2.24 0.0799999 0  2.28 0.0799998 0  2.32 0.0799999 0  2.36 0.0799999 0  2.4 0.08 0  0.0401262 0.120184 0  0 0.12 0  0.0803378 0.120435 0  0.120779 0.12078 0  0.161485 0.120859 0  0.199996 0.117814 0  0.238503 0.120866 0  0.279195 0.120798 0  0.319616 0.120473 0  0.359799 0.120256 0  0.39988 0.120136 0  0.439921 0.120073 0  0.479944 0.120039 0  0.519958 0.120022 0  0.5599690000000001 0.120012 0  0.599976 0.120007 0  0.639981 0.120004 0  0.679985 0.120002 0  0.719987 0.120002 0  0.7599900000000001 0.120001 0  0.799991 0.12 0  0.839993 0.12 0  0.879995 0.12 0  0.919996 0.12 0  0.959998 0.119999 0  1 0.119999 0  1.04 0.119999 0  1.08 0.119999 0  1.12 0.12 0  1.16 0.12 0  1.2 0.12 0  1.24 0.12 0  1.28 0.12 0  1.32 0.12 0  1.36 0.12 0  1.4 0.12 0  1.44 0.12 0  1.48 0.12 0  1.52 0.12 0  1.56 0.12 0  1.6 0.12 0  1.64 0.12 0  1.68 0.12 0  1.72 0.12 0  1.76 0.12 0  1.8 0.12 0  1.84 0.12 0  1.88 0.12 0  1.92 0.12 0  1.96 0.12 0  2 0.12 0  2.04 0.12 0  2.08 0.12 0  2.12 0.12 0  2.16 0.12 0  2.2 0.12 0  2.24 0.12 0  2.28 0.12 0  2.32 0.12 0  2.36 0.12 0  2.4 0.12 0  0.0400582 0.160177 0  0 0.16 0  0.0801954 0.160525 0  0.120857 0.161488 0  0.164645 0.164645 0  0.2 0.15 0  0.235355 0.164645 0  0.279119 0.161498 0  0.319759 0.16055 0  0.359874 0.160228 0  0.399906 0.160104 0  0.439925 0.160051 0  0.479941 0.160027 0  0.519954 0.160014 0  0.559964 0.160008 0  0.5999719999999999 0.160005 0  0.639978 0.160003 0  0.679982 0.160002 0  0.719985 0.160001 0  0.759988 0.160001 0  0.79999 0.16 0  0.839992 0.16 0  0.8799940000000001 0.16 0  0.919996 0.159999 0  0.959998 0.159999 0  1 0.159999 0  1.04 0.159999 0  1.08 0.159999 0  1.12 0.16 0  1.16 0.16 0  1.2 0.16 0  1.24 0.16 0  1.28 0.16 0  1.32 0.16 0  1.36 0.16 0  1.4 0.16 0  1.44 0.16 0  1.48 0.16 0  1.52 0.16 0  1.56 0.16 0  1.6 0.16 0  1.64 0.16 0  1.68 0.16 0  1.72 0.16 0  1.76 0.16 0  1.8 0.16 0  1.84 0.16 0  1.88 0.16 0  1.92 0.16 0  1.96 0.16 0  2 0.16 0  2.04 0.16 0  2.08 0.16 0  2.12 0.16 0  2.16 0.16 0  2.2 0.16 0  2.24 0.16 0  2.28 0.16 0  2.32 0.16 0  2.36 0.16 0  2.4 0.16 0  0.0399111 0.2 0  0 0.2 0  0.0795281 0.2 0  0.117811 0.2 0  0.15 0.2 0  0.282167 0.2 0  0.25 0.2 0  0.320429 0.2 0  0.36003 0.200001 0  0.399944 0.200001 0  0.439934 0.200001 0  0.479942 0.200001 0  0.519953 0.200001 0  0.559963 0.200001 0  0.59997 0.200001 0  0.639976 0.200001 0  0.6799809999999999 0.200001 0  0.719984 0.200001 0  0.759987 0.200001 0  0.799989 0.2 0  0.839991 0.2 0  0.879993 0.2 0  0.919996 0.199999 0  0.959998 0.199999 0  1 0.199999 0  1.04 0.199999 0  1.08 0.199999 0  1.12 0.2 0  1.16 0.2 0  1.2 0.2 0  1.24 0.2 0  1.28 0.2 0  1.32 0.2 0  1.36 0.2 0  1.4 0.2 0  1.44 0.2 0  1.48 0.2 0  1.52 0.2 0  1.56 0.2 0  1.6 0.2 0  1.64 0.2 0  1.68 0.2 0  1.72 0.2 0  1.76 0.2 0  1.8 0.2 0  1.84 0.2 0  1.88 0.2 0  1.92 0.2 0  1.96 0.2 0  2 0.2 0  2.04 0.2 0  2.08 0.2 0  2.12 0.2 0  2.16 0.2 0  2.2 0.2 0  2.24 0.2 0  2.28 0.2 0  2.32 0.2 0  2.36 0.2 0  2.4 0.2 0  0.0400582 0.239823 0  0 0.24 0  0.0801953 0.239475 0  0.120857 0.238513 0  0.164645 0.235355 0  0.279119 0.238502 0  0.235355 0.235355 0  0.319759 0.239451 0  0.359873 0.239774 0  0.399905 0.239898 0  0.439925 0.239951 0  0.479941 0.239976 0  0.519954 0.239988 0  0.559964 0.239994 0  0.5999719999999999 0.239997 0  0.639977 0.239999 0  0.679982 0.24 0  0.719985 0.24 0  0.759987 0.24 0  0.79999 0.24 0  0.839992 0.24 0  0.8799940000000001 0.24 0  0.919996 0.239999 0  0.959998 0.239999 0  1 0.239999 0  1.04 0.239999 0  1.08 0.239999 0  1.12 0.24 0  1.16 0.24 0  1.2 0.24 0  1.24 0.24 0  1.28 0.24 0  1.32 0.24 0  1.36 0.24 0  1.4 0.24 0  1.44 0.24 0  1.48 0.24 0  1.52 0.24 0  1.56 0.24 0  1.6 0.24 0  1.64 0.24 0  1.68 0.24 0  1.72 0.24 0  1.76 0.24 0  1.8 0.24 0  1.84 0.24 0  1.88 0.24 0  1.92 0.24 0  1.96 0.24 0  2 0.24 0  2.04 0.24 0  2.08 0.24 0  2.12 0.24 0  2.16 0.24 0  2.2 0.24 0  2.24 0.24 0  2.28 0.24 0  2.32 0.24 0  2.36 0.24 0  2.4 0.24 0  0.0401261 0.279816 0  0 0.28 0  0.0803376 0.279565 0  0.120778 0.27922 0  0.161485 0.279141 0  0.2 0.25 0  0.199996 0.282186 0  0.238503 0.279135 0  0.279195 0.279202 0  0.319616 0.279528 0  0.359799 0.279745 0  0.39988 0.279865 0  0.43992 0.279929 0  0.479944 0.279962 0  0.519958 0.27998 0  0.559968 0.27999 0  0.599976 0.279995 0  0.639981 0.279998 0  0.679984 0.279999 0  0.719987 0.28 0  0.759989 0.28 0  0.799991 0.28 0  0.839993 0.28 0  0.879995 0.28 0  0.919997 0.279999 0  0.959998 0.279999 0  1 0.279999 0  1.04 0.279999 0  1.08 0.28 0  1.12 0.28 0  1.16 0.28 0  1.2 0.28 0  1.24 0.28 0  1.28 0.28 0  1.32 0.28 0  1.36 0.28 0  1.4 0.28 0  1.44 0.28 0  1.48 0.28 0  1.52 0.28 0  1.56 0.28 0  1.6 0.28 0  1.64 0.28 0  1.68 0.28 0  1.72 0.28 0  1.76 0.28 0  1.8 0.28 0  1.84 0.28 0  1.88 0.28 0  1.92 0.28 0  1.96 0.28 0  2 0.28 0  2.04 0.28 0  2.08 0.28 0  2.12 0.28 0  2.16 0.28 0  2.2 0.28 0  2.24 0.28 0  2.28 0.28 0  2.32 0.28 0  2.36 0.28 0  2.4 0.28 0  0.0401086 0.319877 0  0 0.32 0  0.08025060000000001 0.319748 0  0.120433 0.319661 0  0.160522 0.319802 0  0.199995 0.320467 0  0.239464 0.319795 0  0.279543 0.319643 0  0.31971 0.319714 0  0.359828 0.319813 0  0.399895 0.319889 0  0.439933 0.319937 0  0.479955 0.319965 0  0.519968 0.319981 0  0.559976 0.31999 0  0.599982 0.319995 0  0.6399860000000001 0.319998 0  0.679989 0.319999 0  0.719991 0.32 0  0.759992 0.32 0  0.799994 0.32 0  0.839995 0.32 0  0.879996 0.32 0  0.919998 0.32 0  0.959999 0.32 0  1 0.32 0  1.04 0.32 0  1.08 0.32 0  1.12 0.32 0  1.16 0.32 0  1.2 0.32 0  1.24 0.32 0  1.28 0.32 0  1.32 0.32 0  1.36 0.32 0  1.4 0.32 0  1.44 0.32 0  1.48 0.32 0  1.52 0.32 0  1.56 0.32 0  1.6 0.32 0  1.64 0.32 0  1.68 0.32 0  1.72 0.32 0  1.76 0.32 0  1.8 0.32 0  1.84 0.32 0  1.88 0.32 0  1.92 0.32 0  1.96 0.32 0  2 0.32 0  2.04 0.32 0  2.08 0.32 0  2.12 0.32 0  2.16 0.32 0  2.2 0.32 0  2.24 0.32 0  2.28 0.32 0  2.32 0.32 0  2.36 0.32 0  2.4 0.32 0  0.0400579 0.359942 0  0 0.36 0  0.0801229 0.359891 0  0.120183 0.359873 0  0.160175 0.35994 0  0.199997 0.360086 0  0.239816 0.359936 0  0.279804 0.359862 0  0.319855 0.359871 0  0.359906 0.359906 0  0.399941 0.35994 0  0.439962 0.359964 0  0.479975 0.359979 0  0.5199820000000001 0.359989 0  0.559987 0.359994 0  0.59999 0.359997 0  0.639993 0.359998 0  0.679994 0.359999 0  0.7199950000000001 0.36 0  0.759996 0.36 0  0.799997 0.36 0  0.839997 0.36 0  0.8799979999999999 0.36 0  0
[...]
<PointData  Scalars="f_10391-1"> 
<DataArray  type="Float64"  Name="f_10391-1"  format="ascii">5.9179681486333964e-03  5.8757060595885334e-03  6.2939092373376030e-03  6.3782900620731062e-03  5.6198604186655119e-03  6.0065267928796403e-03  5.1856827297158256e-03  5.5253051114960584e-03  4.6057310246433430e-03  4.8729297524047876e-03  3.9462441774999564e-03  4.1368375294785252e-03  3.2916197190251658e-03  3.4288688477114022e-03  2.6950830067588669e-03  2.8007417025370396e-03  2.1684643203209509e-03  2.2515693534256804e-03  1.7108983432756032e-03  1.7748647462710928e-03  1.3206352010521870e-03  1.3680699019039710e-03  9.9581052873773022e-04  1.0296591982480593e-03  7.3299635114219038e-04  7.5630316674762021e-04  5.2660153052378617e-04  5.4213761565178882e-04  3.6928472667061951e-04  3.7933662694669928e-04  2.5283223653911987e-04  2.5914773065387095e-04  1.6904276805228705e-04  1.7289453136527103e-04  1.1039305071487242e-04  1.1267359176382457e-04  7.0426299525336533e-05  7.1733365069568379e-05  4.3895309549886516e-05  4.4618051913626540e-05  2.6730628760906011e-05  2.7114223772175450e-05  1.5903849577402176e-05  1.6097936873904975e-05  9.2442545889043404e-06  9.3364292003445765e-06  5.2489607757481535e-06  5.2890541222444953e-06  2.9110164497416299e-06  2.9261461152349859e-06  1.5765600822303547e-06  1.5806417804009370e-06  8.3364250562148160e-07  8.3349127114577494e-07  4.3027887099437157e-07  4.2892062264279296e-07  2.1672347656569403e-07  2.1534376169693559e-07  1.0649283538989368e-07  1.0544476607028871e-07  5.1033289449862435e-08  5.0338383840295882e-08  2.3842544157434018e-08  2.3419869742589949e-08  1.0855526036003209e-08  1.0614365193330842e-08  4.8146667433586265e-09  4.6840689679884309e-09  2.0792144956277111e-09  2.0116259117797926e-09  8.7383892645952496e-10  8.4026670142770993e-10  3.5720797625936550e-10  3.4115888260407279e-10  1.4193871336421670e-10  1.3454158851092813e-10  5.4786259176546610e-11  5.1495344573451759e-11  2.0525666844841350e-11  1.9111469295385338e-11  7.4575549046720468e-12  6.8703401022419087e-12  2.6250152292300091e-12  2.3894002699000798e-12  8.9412112172004881e-13  8.0278391651834898e-13  2.9430315822924446e-13  2.6010823657189374e-13  9.3458168164591374e-14  8.1102286449108732e-14  2.8575927706478745e-14  2.4270554463428804e-14  8.3921284067062277e-15  6.9470813988303644e-15  2.3597468293735651e-15  1.8932392445279047e-15  6.3266856522638350e-16  4.8808171149346173e-16  1.6081373675367343e-16  1.1789493711269856e-16  3.8432421766214421e-17  2.6269430199297826e-17  8.5240012468317420e-18  5.2471966074972161e-18  1.7150691235302921e-18  8.8087853666886563e-19  2.9867295452802786e-19  9.9782576141568683e-20  3.9438095479010014e-20  -4.3431668361884798e-21  1.4983035869597711e-21  -7.1737128064537378e-21  -1.3354417623289186e-21  -2.7975134713753153e-21  -6.1624647896760366e-22  -7.9290078390746951e-22  -1.8294157023237082e-22  -1.8309171185084451e-22  -4.4211124137406266e-23  -3.5014275687228038e-23  -1.8231912455723558e-23  -9.8571477780078280e-24  7.5726229356196115e-03  7.6747201955443727e-03  7.2272418104951299e-03  6.6158504988000190e-03  5.7168340739494087e-03  4.7031088679090347e-03  3.8291734530625401e-03  3.1165576679701946e-03  2.5051017781436251e-03  1.9717234082540849e-03  1.5145738835369226e-03  1.1345966575208146e-03  8.2905744561914804e-04  5.9118862014756717e-04  4.1158920017218706e-04  2.7986899677333755e-04  1.8591748221122591e-04  1.2067990907394370e-04  7.6549373723800904e-05  4.7451728860331678e-05  2.8743518403681567e-05  1.7012896520225366e-05  9.8379220424002430e-06  5.5569949025640552e-06  3.0654225174183883e-06  1.6510565255189319e-06  8.6803450573034167e-07  4.4532477224966864e-07  2.2286241409283398e-07  1.0875719840398347e-07  5.1732984433846622e-08  2.3975990146715896e-08  1.0821281697657188e-08  4.7538747928047543e-09  2.0315807625828328e-09  8.4403634285745680e-10  3.4065922610018465e-10  1.3346381078091815e-10  5.0710349206611209e-11  1.8666649961547139e-11  6.6488485628500564e-12  2.2883209299234689e-12  7.5968826393215365e-13  2.4277006886292068e-13  7.4483998055443582e-14  2.1866628366883089e-14  6.1152003521849605e-15  1.6189881040810832e-15  4.0204767422443694e-16  9.2274613577280299e-17  1.9055286362695932e-17  3.3382435087763757e-18  4.1082343479520490e-19  -6.1348833726590777e-21  -2.5489985185869756e-20  -1.0636787187210148e-20  -3.1416149138272649e-21  -7.5098920600095501e-22  -1.4609929342503567e-22  -2.0838821270605636e-23  -2.3042202477693825e-24  9.8361124301941782e-03  9.9322077300583421e-03  9.4552190984314131e-03  8.6652201376341224e-03  7.2485730093920760e-03  5.5411140802566136e-03  4.4282825528295941e-03  3.6362002204109465e-03  2.9358979436379111e-03  2.3051422931940563e-03  1.7594764349337549e-03  1.3077055928920425e-03  9.4784882283138825e-04  6.7072081228294802e-04  4.6366746211474167e-04  3.1327852036316364e-04  2.0692402541546765e-04  1.3362628775019300e-04  8.4369962337019634e-05  5.2078293618239299e-05  3.1424441213904038e-05  1.8532636230560520e-05  1.0680325172675097e-05  6.0133410547483067e-06  3.3067750544674400e-06  1.7755511895069980e-06  9.3062888491052378e-07  4.7596116845483317e-07  2.3744139565083869e-07  1.1549230513687476e-07  5.4748424729615789e-08  2.5281616582273153e-08  1.1366492921185089e-08  4.9726581012820004e-09  2.1155229134734924e-09  8.7460107874583900e-10  3.5109538616196483e-10  1.3673461422992593e-10  5.1609617713299654e-11  1.8857045099295889e-11  6.6605830213919206e-12  2.2705850758643738e-12  7.4557354018656050e-13  2.3523611303203035e-13  7.1091843380256433e-14  2.0495029976396650e-14  5.6044337978771141e-15  1.4417828663296830e-15  3.4448424772487940e-16  7.4751429259670085e-17  1.4068951215723449e-17  2.0203798485358914e-18  9.1280876938649369e-20  -7.5540344030103544e-20  -3.8297960636239807e-20  -1.2343087540518018e-20  -3.1578651199900033e-21  -6.6026915918871465e-22  -1.0575373294931057e-22  -8.0846363772331811e-24  3.5843802328129005e-24  1.3220533457900334e-02  1.3248278398270500e-02  1.2940856811789277e-02  1.2101348698955176e-02  1.0077379986024464e-02  6.1989837131110996e-03  5.0405436339230119e-03  4.3947975919441055e-03  3.5711115950135880e-03  2.7816749663441037e-03  2.0987730020483489e-03  1.5418250450540466e-03  1.1057218982911047e-03  7.7510858912620511e-04  5.3145309899624792e-04  3.5650821858930026e-04  2.3399790500281065e-04  1.5027219686290688e-04  9.4409555442778005e-05  5.8016115240936621e-05  3.4865068496927618e-05  2.0484953517621068e-05  1.1764267274786710e-05  6.6016453313909055e-06  3.6187737863736758e-06  1.9370630065713791e-06  1.0121744887178249e-06  5.1607607786538334e-07  2.5664834790039814e-07  1.2443234279379699e-07  5.8788128334669915e-08  2.7050845267894798e-08  1.2116022645898416e-08  5.2790628094929652e-09  2.2360030333824509e-09  9.1997088960503037e-10  3.6735669105269093e-10  1.4222933423285188e-10  5.3332187680907558e-11  1.9342813541411195e-11  6.7749603413367147e-12  2.2873882537945075e-12  7.4271361304565510e-13  2.3125550397079778e-13  6.8787936450932289e-14  1.9447390137896785e-14  5.1877045239568642e-15  1.2913074363519087e-15  2.9439726486221101e-16  5.9295357256454832e-17  9.6490132952133487e-18  8.5611503151645168e-19  -1.8730369158640678e-19  -1.3433876003664914e-19  -4.8487383946385717e-20  -1.3449913342446488e-20  -3.0527384561607274e-21  -5.5014304221592869e-22  -6.4077047459240102e-23  3.9242438163434994e-24  8.7119400628919581e-24  1.7766178972547238e-02  1.7579710861749420e-02  1.7862260279216759e-02  1.7187869028194511e-02  1.6374285906389899e-02  5.6026330728730367e-03  6.3538851441528347e-03  4.4625813674476289e-03  3.3987870111031001e-03  2.5167139716727690e-03  1.8212579875598255e-03  1.2903302877537459e-03  8.9551103159327995e-04  6.0887531816207388e-04  4.0554271537744619e-04  2.6454748721158760e-04  1.6897601489614634e-04  1.0565476400549339e-04  6.4648655365351609e-05  3.8699668990171572e-05  2.2656269369277471e-05  1.2967446265557478e-05  7.2534318990224079e-06  3.9637726593610191e-06  2.1153068642826483e-06  1.1019790014797711e-06  5.6015292165813587e-07  2.7769875933406154e-07  1.3420238672018889e-07  6.3188420976116214e-08  2.8970664844094412e-08  1.2925698533278698e-08  5.6082704695981502e-09  2.3645932256369098e-09  9.6799075050566576e-10  3.8437979855576484e-10  1.4789471710868015e-10  5.5068197884942877e-11  1.9813542385860395e-11  6.8764887339789223e-12  2.2970703182519040e-12  7.3655890097972174e-13  2.2591652032029831e-13  6.5972660641740627e-14  1.8222375210719867e-14  4.7142649813212269e-15  1.1242435322713223e-15  2.3995489669636949e-16  4.2858079721631937e-17  5.0633304957422662e-18  -3.1521893574442806e-19  -4.5588451119468647e-19  -1.8724631003465873e-19  -5.6387572481054177e-20  -1.3831929976695059e-20  -2.7516283065155092e-21  -3.9484679517990030e-22  -1.3981989288716657e-23  1.6894671548056314e-23  1.3758600815900070e-23  2.3393285082544589e-02  2.2530793018774253e-02  2.4528380100687634e-02  2.3187610916342676e-02  2.0692437719296995e-02  7.5322457612903805e-03  1.0600649739230174e-02  5.5780405317819538e-03  4.1006028448093076e-03  2.9711073583753946e-03  2.1175420953461312e-03  1.4830028742724194e-03  1.0198052883932404e-03  6.8815948121213832e-04  4.5542868766307537e-04  2.9546609683688598e-04  1.8782032164137266e-04  1.1693683729287801e-04  7.1277493563172485e-05  4.2516707614730141e-05  2.4808983077166547e-05  1.4155283585115125e-05  7.8941975477642976e-06  4.3012486569674276e-06  2.2886904801115864e-06  1.1887809920721393e-06  6.0244609110461530e-07  2.9772630224643702e-07  1.4340525182805273e-07  6.7284206804386997e-08  3.0732088841834953e-08  1.3655523095921702e-08  5.8984646579670241e-09  2.4747144584545355e-09  1.0075425324807799e-09  3.9764469352086397e-10  1.5194689912577607e-10  5.6135135907235820e-11  2.0016481047027619e-11  6.8747462522716983e-12  2.2684548402279359e-12  7.1678089533696439e-13  2.1594439949161363e-13  6.1657727144525248e-14  1.6538333746534433e-14  4.1092527177749616e-15  9.2243152976846144e-16  1.7731275144326608e-16  2.4812302994576694e-17  2.7742863075645453e-19  -1.4643249592999857e-18  -6.9699610662509066e-19  -2.2760399683537852e-19  -5.9934891024114015e-20  -1.2941819636520779e-20  -2.1303874090205030e-21  -1.7147035863738937e-22  4.7318369370670232e-23  3.0667893686843958e-23  1.8309003421366582e-23  2.8436545302638786e-02  2.6744407585528349e-02  3.1966351770851012e-02  3.0232046510907922e-02  2.3570744767306355e-02  1.6924189155614763e-02  1.7905110088978684e-02  1.2834407069153706e-02  9.1572788009058499e-03  6.6013447424172218e-03  4.7539309174721451e-03  3.3940389666902888e-03  2.3923327469437825e-03  1.6608586334140867e-03  1.1339927568915851e-03  7.6064170456235881e-04  5.0081719939495397e-04  3.2345837498531623e-04  2.0480230241509174e-04  1.2705336889499912e-04  7.7189461039256748e-05  4.5902602191695342e-05  2.6706711649821793e-05  1.5195185220420448e-05  8.4506882360488911e-06  4.5917900128928748e-06  2.4364208396718076e-06  1.2618499142338272e-06  6.3754232686526750e-07  3.1406312478917361e-07  1.5075791385497024e-07  7.0473729283832756e-08  3.2060119920032085e-08  1.4183166366328709e-08  6.0967326574557055e-09  2.5441402715157783e-09  1.0295723825277058e-09  4.0358112954869520e-10  1.5302585771241979e-10  5.6033865170195992e-11  1.9775753090660836e-11  6.7105143087464857e-12  2.1826172137273957e-12  6.7769908954174954e-13  1.9976560567146545e-13  5.5454502338018514e-14  1.4316704576726350e-14  3.3636947697174020e-15  6.8810680114149271e-16  1.0861562651161521e-16  6.1854549037041186e-18  -4.3187406501576290e-18  -2.4632141845671199e-18  -8.7339504359443872e-19  -2.4581318953023502e-19  -5.6994439010804265e-20  -1.0402165958023367e-20  -1.1527659999255738e-21  1.1196148311843955e-22  1.1368981034619852e-22  4.2829432162214643e-23  2.1051659504848359e-23  3.0012987298604549e-02  2.8590694644788410e-02  3.3566022045744430e-02  3.2297112558743180e-02  2.5200660250606337e-02  1.8767895418907700e-02  1.3843507382304472e-02  1.0088420678623878e-02  7.3018157345962386e-03  5.2416143438549214e-03  3.7224276721067825e-03  2.6092823477297401e-03  1.8021422690502747e-03  1.2247374678022239e-03  8.1811133469419949e-04  5.3666603258827094e-04  3.4545436162635546e-04  2.1806034035982998e-04  1.3489616010600266e-04  8.1736151567030741e-05  4.8481636344925184e-05  2.8136833093719549e-05  1.5969159382589252e-05  8.8587230354783561e-06  4.8010164785806302e-06  2.5405944690825836e-06  1.3120543005816157e-06  6.6089332740903743e-07  3.2450217306488603e-07  1.5521621331057319e-07  7.2276319600270012e-08  3.2739740955342869e-08  1.4415309466913895e-08  6.1638532794767476e-09  2.5569441442594440e-09  1.0278503538454723e-09  3.9985080598052412e-10  1.5029410581760467e-10  5.4480488324423616e-11  1.9001469629108008e-11  6.3578399345485738e-12  2.0330727155420871e-12  6.1811983858969242e-13  1.7736322038184116e-13  4.7491953825023188e-14  1.1643104242838113e-14  2.5179585994040569e-15  4.3741081048675503e-16  3.9621588988574243e-17  -1.1157326935384003e-17  -8.1750477123656551e-18  -3.1654519684422544e-18  -9.5081866629559490e-19  -2.3530101686527945e-19  -4.6776525072487125e-20  -6.2974283788505745e-21  8.3187108740002648e-23  4.1378797897785901e-22  1.7192699882083285e-22  4.9859272991071485e-23  2.0532167606383380e-23  2.9137903274595960e-02  2.8594587699507151e-02  3.0237397210508745e-02  2.8977144158397253e-02  2.4241237514836724e-02  1.8797952402731865e-02  1.4218416751492000e-02  1.0535162440743415e-02  7.6845518012817445e-03  5.5284362548808710e-03  3.9233049816426828e-03  2.7446102215216810e-03  1.8909375462051749e-03  1.2818131500417864e-03  8.5410876596477979e-04  5.5896032177200320e-04  3.5899511239558202e-04  2.2612301382279618e-04  1.3959231242775306e-04  8.4406879753648069e-05  4.9962693961924174e-05  2.8935579666881051e-05  1.6386616337477540e-05  9.0696050646488096e-06  4.9033524468426809e-06  2.5880274234242230e-06  1.3327834805207550e-06  6.6927360520727432e-07  3.2751064930795516e-07  1.5607384285682479e-07  7.2376820146003118e-08  3.2635160080141571e-08  1.4295660261344823e-08  6.0774872140138328e-09  2.5047015198708928e-09  9.9939231320855372e-10  3.8548110926562831e-10  1.4347219643835046e-10  5.1412199746752449e-11  1.7688512164437066e-11  5.8221512073015169e-12  1.8245198299660623e-12  5.4067136419221174e-13  1.4996633828520109e-13  3.8283666173395992e-14  8.7142439392390201e-15  1.6418362381635785e-15  1.9334400394158056e-16  -2.2650382972058976e-17  -2.5252059203443220e-17  -1.0798272879659303e-17  -3.4651710162013103e-18  -9.1252291141374905e-19  -1.9562532487563504e-19  -3.0343953065219405e-20  -1.2009465644724322e-21  1.3691234507773112e-21  6.7276214341590196e-22  2.0702504673272443e-22  4.8819651481408975e-23  1.5878434850489633e-23  2.8672193051617313e-02  2.8474896815569674e-02  2.8889023825776055e-02  2.7350322936440137e-02  2.3432026426044413e-02  1.8651148395678087e-02  1.4274042617234356e-02  1.0647645663565472e-02  7.7941697090571620e-03  5.6155184736089514e-03  3.9859029823083045e-03  2.7870041556816707e-03  1.9185034299701051e-03  1.2991405589213726e-03  8.6467747226597795e-04  5.6520230691027953e-04  3.6255618549365694e-04  2.2806674122464389e-04  1.4059761174650969e-04  8.4889609398901709e-05  5.0168860631779287e-05  2.9004657409061060e-05  1.6394895560712820e-05  9.0554866159566384e-06  4.8845926594058266e-06  2.5715988077612129e-06  1.3205991692523959e-06  6.6107946556310777e-07  3.2237091652883066e-07  1.5302425212929566e-07  7.0651587639193429e-08  3.1700139529185681e-08  1.3808762827495616e-08  5.8334349870669274e-09  2.3868283003978772e-09  9.4450706267377139e-10  3.6084116125422337e-10  1.3281005191534901e-10  4.6967950313541951e-11  1.5905817779864514e-11  5.1349502936169508e-12  1.5704143341307258e-12  4.5076476019592295e-13  1.1962995973607594e-13  2.8566892881226599e-14  5.7794461171312162e-15  8.1441025014444557e-16  -2.0779998253438924e-17  -7.1917823734544492e-17  -3.4601880926254755e-17  -1.1898124894073688e-17  -3.3300025446132303e-18  -7.6509564394920401e-19  -1.3290376874328261e-19  -1.0369681193020763e-20  3.9869707793305176e-21  2.4516578346528504e-21  8.2914850958537576e-22  2.0801344761423844e-22  3.8789862157644472e-23  6.6894945192542366e-24  </DataArray> 
</PointData> 
</Piece>
</UnstructuredGrid>
</VTKFile>