<?xml version="1.0"?>
<VTKFile type="UnstructuredGrid"  version="0.1"  >
<UnstructuredGrid>
<Piece  NumberOfPoints="670" NumberOfCells="1192">
<Points>
<DataArray  type="Float64"  NumberOfComponents="3"  format="ascii">0 0 0  0.04 -1.31357e-10 0  0.0400579 0.0400582 0  0 0.04 0  0.08 -2.62713e-10 0  0.080123 0.0401093 0  0.12 -3.9407e-10 0  0.120183 0.040127 0  0.16 -5.25427e-10 0  0.160176 0.0400597 0  0.2 -6.56784e-10 0  0.199997 0.0399142 0  0.24 -7.8814e-10 0  0.239816 0.0400642 0  0.28 -9.19497e-10 0  0.279804 0.0401377 0  0.32 -1.05085e-09 0  0.319855 0.0401297 0  0.36 -1.18221e-09 0  0.359906 0.0400945 0  0.4 -1.31357e-09 0  0.399941 0.0400609 0  0.44 -1.44492e-09 0  0.439962 0.0400367 0  0.48 -1.57628e-09 0  0.479975 0.0400214 0  0.52 -1.70764e-09 0  0.519983 0.0400122 0  0.5600000000000001 -1.83899e-09 0  0.559987 0.0400069 0  0.6 -1.97035e-09 0  0.59999 0.040004 0  0.64 -2.10171e-09 0  0.639993 0.0400023 0  0.68 -2.23306e-09 0  0.679994 0.0400013 0  0.72 -2.36442e-09 0  0.7199950000000001 0.0400008 0  0.76 -2.49578e-09 0  0.759996 0.0400005 0  0.8 -2.62713e-09 0  0.799997 0.0400002 0  0.84 -2.75849e-09 0  0.839997 0.0400001 0  0.88 -2.88985e-09 0  0.8799979999999999 0.04 0  0.92 -3.0212e-09 0  0.919999 0.0399999 0  0.96 -3.15256e-09 0  0.959999 0.0399998 0  1 -3.28392e-09 0  1 0.0399998 0  1.04 -3.41527e-09 0  1.04 0.0399998 0  1.08 -3.54663e-09 0  1.08 0.0399998 0  1.12 -3.67799e-09 0  1.12 0.0399998 0  1.16 -3.80934e-09 0  1.16 0.0399999 0  1.2 -3.9407e-09 0  1.2 0.04 0  1.24 -4.07206e-09 0  1.24 0.04 0  1.28 -4.20341e-09 0  1.28 0.0400001 0  1.32 -4.33477e-09 0  1.32 0.0400001 0  1.36 -4.46613e-09 0  1.36 0.04 0  1.4 -4.59748e-09 0  1.4 0.04 0  1.44 -4.72884e-09 0  1.44 0.04 0  1.48 -4.8602e-09 0  1.48 0.04 0  1.52 -4.99156e-09 0  1.52 0.04 0  1.56 -5.12291e-09 0  1.56 0.04 0  1.6 -5.25427e-09 0  1.6 0.0400001 0  1.64 -5.38563e-09 0  1.64 0.0400001 0  1.68 -5.51698e-09 0  1.68 0.04 0  1.72 -5.64834e-09 0  1.72 0.04 0  1.76 -5.7797e-09 0  1.76 0.04 0  1.8 -5.91105e-09 0  1.8 0.04 0  1.84 -6.04241e-09 0  1.84 0.04 0  1.88 -6.17377e-09 0  1.88 0.0400001 0  1.92 -6.30512e-09 0  1.92 0.0400001 0  1.96 -6.43648e-09 0  1.96 0.0400001 0  2 -6.56784e-09 0  2 0.0400001 0  2.04 -6.69919e-09 0  2.04 0.0400001 0  2.08 -6.83055e-09 0  2.08 0.04 0  2.12 -6.96191e-09 0  2.12 0.04 0  2.16 -7.09326e-09 0  2.16 0.0400001 0  2.2 -7.22462e-09 0  2.2 0.04 0  2.24 -7.35598e-09 0  2.24 0.04 0  2.28 -7.48733e-09 0  2.28 0.0399999 0  2.32 -7.618690000000001e-09 0  2.32 0.04 0  2.36 -7.750049999999999e-09 0  2.36 0.04 0  2.4 -7.8814e-09 0  2.4 0.04 0  0.0401088 0.0801235 0  0 0.08 0  0.0802509 0.0802518 0  0.120434 0.0803392 0  0.160522 0.0801977 0  0.199995 0.0795328 0  0.239464 0.0802049 0  0.279544 0.08035689999999999 0  0.319711 0.0802867 0  0.359828 0.08018740000000001 0  0.399896 0.0801123 0  0.439933 0.0800646 0  0.479955 0.0800365 0  0.519968 0.08002049999999999 0  0.559976 0.0800116 0  0.599982 0.0800066 0  0.6399860000000001 0.0800039 0  0.679989 0.0800023 0  0.719991 0.0800014 0  0.759992 0.0800008 0  0.799994 0.0800004 0  0.839995 0.08000019999999999 0  0.879996 0.0799999 0  0.919997 0.07999970000000001 0  0.959999 0.0799996 0  1 0.0799995 0  1.04 0.0799995 0  1.08 0.0799996 0  1.12 0.07999970000000001 0  1.16 0.0799998 0  1.2 0.08 0  1.24 0.0800001 0  1.28 0.0800001 0  1.32 0.0800001 0  1.36 0.08 0  1.4 0.0799999 0  1.44 0.0799999 0  1.48 0.0799999 0  1.52 0.0799999 0  1.56 0.08 0  1.6 0.0800001 0  1.64 0.0800001 0  1.68 0.08 0  1.72 0.0799999 0  1.76 0.0799999 0  1.8 0.0799999 0  1.84 0.0799999 0  1.88 0.08 0  1.92 0.0800001 0  1.96 0.0800001 0  2 0.0800001 0  2.04 0.08 0  2.08 0.0799999 0  2.12 0.0799999 0  2.16 0.08 0  2.2 0.08 0  2.24 0.0799999 0  2.28 0.0799998 0  2.32 0.0799999 0  2.36 0.0799999 0  2.4 0.08 0  0.0401262 0.120184 0  0 0.12 0  0.0803378 0.120435 0  0.120779 0.12078 0  0.161485 0.120859 0  0.199996 0.117814 0  0.238503 0.120866 0  0.279195 0.120798 0  0.319616 0.120473 0  0.359799 0.120256 0  0.39988 0.120136 0  0.439921 0.120073 0  0.479944 0.120039 0  0.519958 0.120022 0  0.5599690000000001 0.120012 0  0.599976 0.120007 0  0.639981 0.120004 0  0.679985 0.120002 0  0.719987 0.120002 0  0.7599900000000001 0.120001 0  0.799991 0.12 0  0.839993 0.12 0  0.879995 0.12 0  0.919996 0.12 0  0.959998 0.119999 0  1 0.119999 0  1.04 0.119999 0  1.08 0.119999 0  1.12 0.12 0  1.16 0.12 0  1.2 0.12 0  1.24 0.12 0  1.28 0.12 0  1.32 0.12 0  1.36 0.12 0  1.4 0.12 0  1.44 0.12 0  1.48 0.12 0  1.52 0.12 0  1.56 0.12 0  1.6 0.12 0  1.64 0.12 0  1.68 0.12 0  1.72 0.12 0  1.76 0.12 0  1.8 0.12 0  1.84 0.12 0  1.88 0.12 0  1.92 0.12 0  1.96 0.12 0  2 0.12 0  2.04 0.12 0  2.08 0.12 0  2.12 0.12 0  2.16 0.12 0  2.2 0.12 0  2.24 0.12 0  2.28 0.12 0  2.32 0.12 0  2.36 0.12 0  2.4 0.12 0  0.0400582 0.160177 0  0 0.16 0  0.0801954 0.160525 0  0.120857 0.161488 0  0.164645 0.164645 0  0.2 0.15 0  0.235355 0.164645 0  0.279119 0.161498 0  0.319759 0.16055 0  0.359874 0.160228 0  0.399906 0.160104 0  0.439925 0.160051 0  0.479941 0.160027 0  0.519954 0.160014 0  0.559964 0.160008 0  0.5999719999999999 0.160005 0  0.639978 0.160003 0  0.679982 0.160002 0  0.719985 0.160001 0  0.759988 0.160001 0  0.79999 0.16 0  0.839992 0.16 0  0.8799940000000001 0.16 0  0.919996 0.159999 0  0.959998 0.159999 0  1 0.159999 0  1.04 0.159999 0  1.08 0.159999 0  1.12 0.16 0  1.16 0.16 0  1.2 0.16 0  1.24 0.16 0  1.28 0.16 0  1.32 0.16 0  1.36 0.16 0  1.4 0.16 0  1.44 0.16 0  1.48 0.16 0  1.52 0.16 0  1.56 0.16 0  1.6 0.16 0  1.64 0.16 0  1.68 0.16 0  1.72 0.16 0  1.76 0.16 0  1.8 0.16 0  1.84 0.16 0  1.88 0.16 0  1.92 0.16 0  1.96 0.16 0  2 0.16 0  2.04 0.16 0  2.08 0.16 0  2.12 0.16 0  2.16 0.16 0  2.2 0.16 0  2.24 0.16 0  2.28 0.16 0  2.32 0.16 0  2.36 0.16 0  2.4 0.16 0  0.0399111 0.2 0  0 0.2 0  0.0795281 0.2 0  0.117811 0.2 0  0.15 0.2 0  0.282167 0.2 0  0.25 0.2 0  0.320429 0.2 0  0.36003 0.200001 0  0.399944 0.200001 0  0.439934 0.200001 0  0.479942 0.200001 0  0.519953 0.200001 0  0.559963 0.200001 0  0.59997 0.200001 0  0.639976 0.200001 0  0.6799809999999999 0.200001 0  0.719984 0.200001 0  0.759987 0.200001 0  0.799989 0.2 0  0.839991 0.2 0  0.879993 0.2 0  0.919996 0.199999 0  0.959998 0.199999 0  1 0.199999 0  1.04 0.199999 0  1.08 0.199999 0  1.12 0.2 0  1.16 0.2 0  1.2 0.2 0  1.24 0.2 0  1.28 0.2 0  1.32 0.2 0  1.36 0.2 0  1.4 0.2 0  1.44 0.2 0  1.48 0.2 0  1.52 0.2 0  1.56 0.2 0  1.6 0.2 0  1.64 0.2 0  1.68 0.2 0  1.72 0.2 0  1.76 0.2 0  1.8 0.2 0  1.84 0.2 0  1.88 0.2 0  1.92 0.2 0  1.96 0.2 0  2 0.2 0  2.04 0.2 0  2.08 0.2 0  2.12 0.2 0  2.16 0.2 0  2.2 0.2 0  2.24 0.2 0  2.28 0.2 0  2.32 0.2 0  2.36 0.2 0  2.4 0.2 0  0.0400582 0.239823 0  0 0.24 0  0.0801953 0.239475 0  0.120857 0.238513 0  0.164645 0.235355 0  0.279119 0.238502 0  0.235355 0.235355 0  0.319759 0.239451 0  0.359873 0.239774 0  0.399905 0.239898 0  0.439925 0.239951 0  0.479941 0.239976 0  0.519954 0.239988 0  0.559964 0.239994 0  0.5999719999999999 0.239997 0  0.639977 0.239999 0  0.679982 0.24 0  0.719985 0.24 0  0.759987 0.24 0  0.79999 0.24 0  0.839992 0.24 0  0.8799940000000001 0.24 0  0.919996 0.239999 0  0.959998 0.239999 0  1 0.239999 0  1.04 0.239999 0  1.08 0.239999 0  1.12 0.24 0  1.16 0.24 0  1.2 0.24 0  1.24 0.24 0  1.28 0.24 0  1.32 0.24 0  1.36 0.24 0  1.4 0.24 0  1.44 0.24 0  1.48 0.24 0  1.52 0.24 0  1.56 0.24 0  1.6 0.24 0  1.64 0.24 0  1.68 0.24 0  1.72 0.24 0  1.76 0.24 0  1.8 0.24 0  1.84 0.24 0  1.88 0.24 0  1.92 0.24 0  1.96 0.24 0  2 0.24 0  2.04 0.24 0  2.08 0.24 0  2.12 0.24 0  2.16 0.24 0  2.2 0.24 0  2.24 0.24 0  2.28 0.24 0  2.32 0.24 0  2.36 0.24 0  2.4 0.24 0  0.0401261 0.279816 0  0 0.28 0  0.0803376 0.279565 0  0.120778 0.27922 0  0.161485 0.279141 0  0.2 0.25 0  0.199996 0.282186 0  0.238503 0.279135 0  0.279195 0.279202 0  0.319616 0.279528 0  0.359799 0.279745 0  0.39988 0.279865 0  0.43992 0.279929 0  0.479944 0.279962 0  0.519958 0.27998 0  0.559968 0.27999 0  0.599976 0.279995 0  0.639981 0.279998 0  0.679984 0.279999 0  0.719987 0.28 0  0.759989 0.28 0  0.799991 0.28 0  0.839993 0.28 0  0.879995 0.28 0  0.919997 0.279999 0  0.959998 0.279999 0  1 0.279999 0  1.04 0.279999 0  1.08 0.28 0  1.12 0.28 0  1.16 0.28 0  1.2 0.28 0  1.24 0.28 0  1.28 0.28 0  1.32 0.28 0  1.36 0.28 0  1.4 0.28 0  1.44 0.28 0  1.48 0.28 0  1.52 0.28 0  1.56 0.28 0  1.6 0.28 0  1.64 0.28 0  1.68 0.28 0  1.72 0.28 0  1.76 0.28 0  1.8 0.28 0  1.84 0.28 0  1.88 0.28 0  1.92 0.28 0  1.96 0.28 0  2 0.28 0  2.04 0.28 0  2.08 0.28 0  2.12 0.28 0  2.16 0.28 0  2.2 0.28 0  2.24 0.28 0  2.28 0.28 0  2.32 0.28 0  2.36 0.28 0  2.4 0.28 0  0.0401086 0.319877 0  0 0.32 0  0.08025060000000001 0.319748 0  0.120433 0.319661 0  0.160522 0.319802 0  0.199995 0.320467 0  0.239464 0.319795 0  0.279543 0.319643 0  0.31971 0.319714 0  0.359828 0.319813 0  0.399895 0.319889 0  0.439933 0.319937 0  0.479955 0.319965 0  0.519968 0.319981 0  0.559976 0.31999 0  0.599982 0.319995 0  0.6399860000000001 0.319998 0  0.679989 0.319999 0  0.719991 0.32 0  0.759992 0.32 0  0.799994 0.32 0  0.839995 0.32 0  0.879996 0.32 0  0.919998 0.32 0  0.959999 0.32 0  1 0.32 0  1.04 0.32 0  1.08 0.32 0  1.12 0.32 0  1.16 0.32 0  1.2 0.32 0  1.24 0.32 0  1.28 0.32 0  1.32 0.32 0  1.36 0.32 0  1.4 0.32 0  1.44 0.32 0  1.48 0.32 0  1.52 0.32 0  1.56 0.32 0  1.6 0.32 0  1.64 0.32 0  1.68 0.32 0  1.72 0.32 0  1.76 0.32 0  1.8 0.32 0  1.84 0.32 0  1.88 0.32 0  1.92 0.32 0  1.96 0.32 0  2 0.32 0  2.04 0.32 0  2.08 0.32 0  2.12 0.32 0  2.16 0.32 0  2.2 0.32 0  2.24 0.32 0  2.28 0.32 0  2.32 0.32 0  2.36 0.32 0  2.4 0.32 0  0.0400579 0.359942 0  0 0.36 0  0.0801229 0.359891 0  0.120183 0.359873 0  0.160175 0.35994 0  0.199997 0.360086 0  0.239816 0.359936 0  0.279804 0.359862 0  0.319855 0.359871 0  0.359906 0.359906 0  0.399941 0.35994 0  0.439962 0.359964 0  0.479975 0.359979 0  0.5199820000000001 0.359989 0  0.559987 0.359994 0  0.59999 0.359997 0  0.639993 0.359998 0  0.679994 0.359999 0  0.7199950000000001 0.36 0  0.759996 0.36 0  0.799997 0.36 0  0.839997 0.36 0  0.8799979999999999 0.36 0  0
[...]
<PointData  Scalars="f_10391-1"> 
<DataArray  type="Float64"  Name="f_10391-1"  format="ascii">3.9064499192646542e-03  3.8828860640351564e-03  4.2522628306994516e-03  4.3136169826782089e-03  3.6891858500627621e-03  4.0310317995272439e-03  3.3512219830351951e-03  3.6507387100089589e-03  2.8959535530211321e-03  3.1292088719829959e-03  2.3832459699056341e-03  2.5458683957791488e-03  1.8883205704014168e-03  2.0006159061775326e-03  1.4576146870868543e-03  1.5396385253863044e-03  1.0994490499884328e-03  1.1605852171457079e-03  8.0892153835370308e-04  8.5346700839622990e-04  5.7899368474504265e-04  6.1013362567284395e-04  4.0233684816758948e-04  4.2314252147309322e-04  2.7110327088140376e-04  2.8440375349893877e-04  1.7703448081884043e-04  1.8518705800418854e-04  1.1201120168085982e-04  1.1681037654484382e-04  6.8662300683069332e-05  7.1374448132049709e-05  4.0777471097089574e-05  4.2246680141981765e-05  2.3461137547229494e-05  2.4222719812498722e-05  1.3075723758285938e-05  1.3451499284797914e-05  7.0583553020077045e-06  7.2335199955303740e-06  3.6894932291983301e-06  3.7656573490329673e-06  1.8669372430452948e-06  1.8971439597419563e-06  9.1419846054244010e-07  9.2454877930505407e-07  4.3302973723682317e-07  4.3563361288870349e-07  1.9831277255182114e-07  1.9835222460470608e-07  8.7761030959222187e-08  8.7212022680978796e-08  3.7505708743156027e-08  3.7002806433566673e-08  1.5467874871534347e-08  1.5136909194103148e-08  6.1511061632476531e-09  5.9643688130753661e-09  2.3565058067371785e-09  2.2611683566895869e-09  8.6880395345380172e-10  8.2372013114650261e-10  3.0788379163060119e-10  2.8790009531808555e-10  1.0472455914110973e-10  9.6366473991233649e-11  3.4133202201936207e-11  3.0822315288264613e-11  1.0638785429730566e-11  9.3940789540126694e-12  3.1630856185540419e-12  2.7186088417600335e-12  8.9426810578387454e-13  7.4351392011236765e-13  2.3943376643943492e-13  1.9090904683441478e-13  6.0375359672128197e-14  4.5576846267677740e-14  1.4225492691951508e-14  9.9604731545326568e-15  3.0944591939397409e-15  1.9371719124354037e-15  6.0899899558420812e-16  3.1496869887223040e-16  1.0421926863949420e-16  3.4845890679753137e-17  1.4019345699198006e-17  -9.8266823686457140e-19  9.0309333685444603e-19  -2.0027012061587654e-18  -2.4550590617926769e-19  -7.2624148992489703e-19  -1.2585631880605661e-19  -1.8532074854426119e-19  -3.5093375463738671e-20  -3.7178578785630581e-20  -7.3711083245468826e-21  -5.6880019651622903e-21  -1.1935336400223814e-21  -5.0412111115459539e-22  -1.2833404991012921e-22  4.8262191613091245e-23  5.6502950722622766e-25  3.5004009652518371e-23  4.5887158742466604e-24  9.6150098527535544e-24  1.4006733823156788e-24  1.8113132173168477e-24  2.7420483988719330e-25  2.3064468079420361e-25  3.6712755797269100e-26  9.3342314861519049e-27  2.1716543434406421e-27  -4.7106254076764310e-27  -4.8265431084745693e-28  -1.6511389886539071e-27  -1.9555503029175223e-28  -3.2108691423139352e-28  -3.9102225453283626e-29  -3.9259630301444616e-29  -1.1056497872938863e-29  -2.9057280187907770e-30  5.3845167096138232e-03  5.4601051906232366e-03  5.1134317200066315e-03  4.6157686581720847e-03  3.8692168582875499e-03  3.0321022646334372e-03  2.3304722785792366e-03  1.7872867289594303e-03  1.3498924598093944e-03  9.9322367801243211e-04  7.0855503530371702e-04  4.8940437171616548e-04  3.2724706095655460e-04  2.1189734783905111e-04  1.3290715240501993e-04  8.0765627260048214e-05  4.7555251546728456e-05  2.7129410097311809e-05  1.4992877453967644e-05  8.0245851640809647e-06  4.1580517560038446e-06  2.0850557902328202e-06  1.0113025434922451e-06  4.7416526195608026e-07  2.1476765936320862e-07  9.3905723386236021e-08  3.9603526864224695e-08  1.6094121140459481e-08  6.2952595841671017e-09  2.3671065434741375e-09  8.5433837578254312e-10  2.9544490257240316e-10  9.7683383578313722e-11  3.0796584729766833e-11  9.2266919295609293e-12  2.6152253686059392e-12  6.9698772484898556e-13  1.7310888419837671e-13  3.9510396167218410e-14  8.0859588683095740e-15  1.4094195327930376e-15  1.8008281527595971e-16  3.9662909208192383e-18  -7.1202285077802108e-18  -2.9801128919097170e-18  -8.1562145223223716e-19  -1.7228239720547154e-19  -2.7521539587351092e-20  -2.5206300857235857e-21  2.6327588029936732e-22  1.9393129250813538e-22  5.5157655384618272e-23  1.0767938851217701e-23  1.4168955595613613e-24  5.6609530318658305e-26  -3.2402662748650440e-26  -1.1685751856834386e-26  -2.3627476757645257e-27  -3.0314903846588688e-28  -1.0537396234377163e-29  1.1953340718811150e-29  7.4027235517533192e-03  7.4703254760928959e-03  7.1024580461593245e-03  6.4418543174112608e-03  5.2229420137722988e-03  3.7573337867139174e-03  2.8251640277760603e-03  2.1965729985823326e-03  1.6746950767461456e-03  1.2329142050054986e-03  8.7529018256729898e-04  6.0015636715844657e-04  3.9807818981391427e-04  2.5571637077615887e-04  1.5918679719630505e-04  9.6066154332409914e-05  5.6204584068808840e-05  3.1875767768936483e-05  1.7520333029370995e-05  9.3291310386825852e-06  4.8105011191978011e-06  2.4007461397962211e-06  1.1589291538213880e-06  5.4080503416102564e-07  2.4375524698949417e-07  1.0603334342595567e-07  4.4474513094858161e-08  1.7966954530410430e-08  6.9822705730030312e-09  2.6064566561911138e-09  9.3304481079454341e-10  3.1964701176215464e-10  1.0453801418418453e-10  3.2535330579612580e-11  9.5973831898121959e-12  2.6686535046746763e-12  6.9406921612769422e-13  1.6686357541673909e-13  3.6357013094782184e-14  6.9091744925087104e-15  1.0401577150195921e-15  7.9236032973928311e-17  -2.0047043512267096e-17  -1.1978344800771226e-17  -3.7469784156310295e-18  -8.7872492263103568e-19  -1.5885145689076077e-19  -1.9149183909445959e-20  4.3853534305864399e-23  8.3314857719924937e-22  2.8610049805086236e-22  6.2941895746233654e-23  9.5146408026020303e-24  6.5600077181155672e-25  -1.4925060723346388e-25  -7.0304494219082890e-26  -1.6049125316848167e-26  -2.3407354191678706e-27  -1.4207106433074337e-28  3.7332805495862240e-29  2.8688586926124692e-29  1.0456216180970737e-02  1.0455947157838118e-02  1.0253826664939953e-02  9.5388405652250177e-03  7.7500647073821503e-03  4.3311302328434180e-03  3.3288375952750674e-03  2.7999327765623520e-03  2.1611281411854687e-03  1.5811444002615186e-03  1.1098583787855114e-03  7.5199471190026961e-04  4.9332452128318888e-04  3.1380142797855873e-04  1.9366899894661805e-04  1.1598826905322191e-04  6.7401797576239686e-05  3.7994045317773374e-05  2.0766756840741575e-05  1.1000605925670446e-05  5.6444353232428876e-06  2.8035246163615809e-06  1.3469887704775791e-06  6.2555193232409673e-07  2.8056614412743528e-07  1.2141312141742146e-07  5.0641990230246274e-08  2.0334172352223478e-08  7.8489030277216118e-09  2.9076911564254313e-09  1.0318235264461009e-09  3.4991310527808231e-10  1.1306890799913471e-10  3.4683811957193707e-11  1.0049516535812633e-11  2.7313370890387343e-12  6.8916554072417436e-13  1.5874463376294290e-13  3.2361869268339303e-14  5.4387004371025018e-15  5.8404902778552285e-16  -4.3825415816861315e-17  -4.8920455969155872e-17  -1.7698845781529840e-17  -4.6158409519342333e-18  -9.3943614097025143e-19  -1.3966719543072541e-19  -8.7768277672987865e-21  3.0598080609286860e-21  1.4700763064947571e-21  3.8089960916485863e-22  6.8611226916249190e-23  7.4499259357779876e-24  -2.7168380319221337e-25  -3.7101674465172046e-25  -1.0519680691243394e-25  -1.8537458453976944e-26  -1.8028008015955138e-27  1.1166540370618842e-28  9.3810218918710430e-29  4.3873567672146083e-29  1.4619825787015806e-02  1.4405734271801770e-02  1.4784466477624474e-02  1.4198407852644403e-02  1.3444575651115523e-02  3.7841532703840638e-03  4.4213092032565271e-03  2.8587334069551940e-03  2.0403066690359776e-03  1.4031139959430269e-03  9.3543350066111202e-04  6.0579558207200085e-04  3.8131120021151057e-04  2.3327381408966489e-04  1.3866435088624902e-04  8.0052405036798533e-05  4.4860704805683679e-05  2.4388817010688766e-05  1.2854517425137202e-05  6.5639515569348561e-06  3.2448139140403379e-06  1.5515848512536587e-06  7.1701698762929262e-07  3.1992749387551553e-07  1.3767873228833124e-07  5.7078405912155418e-08  2.2764210916076391e-08  8.7200775212918750e-09  3.2022793657450873e-09  1.1248405880124266e-09  3.7688305682676066e-10  1.2002432904258290e-10  3.6162107568580219e-11  1.0241573228316898e-11  2.7009652872670498e-12  6.5345567285314224e-13  1.4120291029365516e-13  2.5720520683028441e-14  3.2949984286123002e-15  -2.3066000679355013e-17  -1.9490943272449241e-16  -8.1249600734992539e-17  -2.3258059058990157e-17  -5.2035225504785290e-18  -8.8635347580146152e-19  -8.7659985289923478e-20  9.1143349861897799e-21  7.4230401581724405e-21  2.2658464020622566e-21  4.7316477242252341e-22  6.6392935795667307e-23  2.7411881419830731e-24  -1.7713185783422115e-24  -6.7584988732543078e-25  -1.4457315384652608e-25  -1.9299505696440583e-26  -5.7784210304087425e-28  5.0605937051775220e-28  1.6606363163658466e-28  5.8396108115160772e-29  1.9859812974784053e-02  1.8966905831734732e-02  2.1067341054094017e-02  1.9818674147468587e-02  1.7387424597545866e-02  5.3853485879286405e-03  8.0791286982211125e-03  3.7429705981498174e-03  2.5677419099270167e-03  1.7244609305506425e-03  1.1311226688084134e-03  7.2370885321412120e-04  4.5120574376033488e-04  2.7387839722414151e-04  1.6171545386172977e-04  9.2815588993399597e-05  5.1737986235174673e-05  2.7989216864237159e-05  1.4682938011270179e-05  7.4628041570593309e-06  3.6719292471002614e-06  1.7473530368936590e-06  8.0339036058597441e-07  3.5650087912980876e-07  1.5249519185216255e-07  6.2797228903942904e-08  2.4855146231069758e-08  9.4381867494382904e-09  3.4308868442737522e-09  1.1907136869430856e-09  3.9320953668082235e-10  1.2300967595519880e-10  3.6235588078990367e-11  9.9638797283912531e-12  2.5229708395073321e-12  5.7450146079271624e-13  1.1200492796026938e-13  1.6253585554076518e-14  5.6396701517946429e-16  -7.2158888347444286e-16  -3.4973744455293079e-16  -1.0913238293274543e-16  -2.6465338773869599e-17  -4.9884669965664906e-18  -6.1606114593400844e-19  1.2341129860459095e-20  3.5229610936411816e-20  1.2607606317218967e-20  2.9692466574001454e-21  4.8949536627896335e-22  4.0012603129602369e-23  -7.3383429797462182e-24  -4.1186572466861672e-24  -1.0461565716852359e-24  -1.7129490409161169e-25  -1.3338653723452682e-26  2.3016982451244027e-27  1.1638444843615519e-27  2.5757452698818347e-28  6.6429782458963810e-29  2.4550837427333785e-02  2.2823685467810335e-02  2.8168974697461744e-02  2.6562511159093073e-02  2.0070544883049591e-02  1.3800833266337411e-02  1.4664086371897787e-02  1.0002982009675200e-02  6.7315900249843592e-03  4.5517556911986914e-03  3.0570767400243492e-03  2.0225889454957920e-03  1.3120535404252637e-03  8.3219527384550669e-04  5.1516037197929748e-04  3.1080358655933676e-04  1.8253719590319371e-04  1.0425696272058190e-04  5.7853179513668128e-05  3.1160533326406258e-05  1.6275769076447284e-05  8.2361099921335132e-06  4.0338547157762911e-06  1.9102263268511190e-06  8.7363625676156489e-07  3.8542227583267035e-07  1.6379175663540611e-07  6.6950330464219643e-08  2.6273660540019306e-08  9.8780033975118675e-09  3.5487624543039320e-09  1.2143308442120052e-09  3.9411967492625972e-10  1.2063907513151257e-10  3.4546291528203920e-11  9.1405108075218403e-12  2.1878013559030597e-12  4.5415755882603345e-13  7.3168608578752275e-14  4.9533770684183573e-15  -2.3748957126878088e-15  -1.3874861572066841e-15  -4.7276990969466735e-16  -1.2366719974730079e-16  -2.5433043805877106e-17  -3.6654882221383074e-18  -1.0807356242723950e-19  1.5077613120214989e-19  6.4153865371890225e-20  1.6841538572110553e-20  3.1391698085337119e-21  3.4456154753546859e-22  -2.1788734906220359e-23  -2.2934261821446396e-23  -6.8354087690042397e-24  -1.3005553105735289e-24  -1.4186104053605913e-25  6.7283435119386174e-27  7.5496138508148800e-27  2.0289348206200861e-27  3.2224973351189638e-28  4.4337024419751909e-29  2.5841768268084375e-02  2.4381919247576274e-02  2.9497331281272035e-02  2.8386969249530263e-02  2.1507663282571518e-02  1.5369307118321858e-02  1.0821592378884748e-02  7.4730308739293580e-03  5.0901923447281309e-03  3.4149568625004602e-03  2.2504289415098662e-03  1.4530099746378651e-03  9.1731722414662320e-04  5.6534307559832138e-04  3.3966406698151619e-04  1.9870189962634401e-04  1.1305648579940881e-04  6.2498852901661417e-05  3.3534526965371297e-05  1.7446765358840583e-05  8.7917590455207269e-06  4.2866722493884972e-06  2.0199659152343925e-06  9.1875460176344547e-07  4.0281927443973405e-07  1.6998090146049264e-07  6.8915062840499046e-08  2.6788029798455857e-08  9.9585215553353072e-09  3.5296264547927313e-09  1.1879909964088835e-09  3.7768935043317377e-10  1.1257262345738929e-10  3.1101656800066479e-11  7.8163558464792463e-12  1.7234283971507789e-12  3.0510121705666251e-13  2.9554255124785314e-14  -6.5338777872718681e-15  -5.0228525459420501e-15  -1.8862422599301843e-15  -5.3247630286870678e-16  -1.1885210453416148e-16  -1.9447536884457309e-17  -1.3031151150800945e-18  5.5850202400971364e-19  2.9595339937348921e-19  8.6658711076310879e-20  1.8002350897599289e-20  2.4060086738312825e-21  3.1012035063753095e-24  -1.1350970428524307e-22  -4.0081032780481276e-23  -8.6803279465814153e-24  -1.1669339274691461e-24  -1.4949223262159827e-26  4.3355179971068057e-26  1.4225505406932232e-26  2.6817543747420356e-27  2.5890442659010095e-28  -3.8665719534693666e-29  2.4780347530552558e-02  2.4201697187234871e-02  2.5988543324587440e-02  2.4904509328306706e-02  2.0410926422773149e-02  1.5280416977641957e-02  1.1077116105401867e-02  7.8050324319286100e-03  5.3722362036880637e-03  3.6190179467797991e-03  2.3862524707157690e-03  1.5388518885171636e-03  9.6950773615366904e-04  5.9604078149361357e-04  3.5714992217040896e-04  2.0834703853319630e-04  1.1819468955774753e-04  6.5137053979872950e-05  3.4833677037789842e-05  1.8056766375865039e-05  9.0628435102890919e-06  4.3991849308424754e-06  2.0625377620002517e-06  9.3275265991738305e-07  4.0626040115291508e-07  1.7012662980256994e-07  6.8357194493211797e-08  2.6290008204206017e-08  9.6494582593438080e-09  3.3673036617480199e-09  1.1116315270187433e-09  3.4476533650453053e-10  9.9425091503887244e-11  2.6219222143225775e-11  6.1302129571061779e-12  1.1838463175905387e-12  1.4637299431953821e-13  -1.2723779198352143e-14  -1.6429510387005336e-14  -6.9192001391234936e-15  -2.1159464279286949e-15  -5.1179470991789104e-16  -9.3705445615090383e-17  -9.2634350434092401e-18  1.6652636914082652e-18  1.2305690388330874e-18  4.0583768400115607e-19  9.3559344089414302e-20  1.4634311427680778e-20  6.8907831628604109e-22  -4.8579555905406016e-22  -2.1082775635152188e-22  -5.1766252931340135e-23  -8.1968323874433748e-24  -4.4547896908230004e-25  2.1271745063905758e-25  8.8379633150401682e-26  1.9314234965098177e-26  2.4457705534138566e-27  -3.0850619828782569e-29  -1.8859829118931483e-28  2.4252256991795736e-02  2.4032984212786275e-02  2.4576532206086948e-02  2.3218646238387236e-02  1.9550404866676654e-02  1.5088955017385221e-02  1.1090821083513579e-02  7.8782079129563424e-03  5.4470044953634127e-03  3.6769902494424344e-03  2.4257175679031420e-03  1.5636019780502981e-03  9.8408786321443919e-04  6.0413838315996117e-04  3.6137960446421804e-04  2.1039359009156916e-04  1.1908550799465920e-04  6.5457406240883455e-05  3.4901430992190758e-05  1.8030740417924629e-05  9.0146711298761845e-06  4.3561462307853375e-06  2.0317751495308903e-06  9.1330234283061261e-07  3.9498413053641687e-07  1.6402768181467483e-07  6.5255163212957629e-08  2.4799406804327382e-08  8.9711225488096556e-09  3.0747124059391034e-09  9.9205155483275535e-10  2.9852618667614985e-10  8.2552682193854429e-11  2.0433298722981267e-11  4.2772466550748894e-12  6.3507728198390429e-13  -1.4665437948463497e-15  -4.7848151645199891e-14  -2.3277899384104625e-14  -7.7616233785385542e-15  -2.0347509894500941e-15  -4.1295701197398903e-16  -5.2596931217722682e-17  3.1053588304859769e-18  4.5734338743298435e-18  1.7314765246066737e-18  4.4320947730962638e-19  7.9455679957631208e-20  6.6791065593815741e-21  -1.7119795731745452e-21  -9.9346141641024128e-22  -2.7812248319574405e-22  -5.0824932987870492e-23  -4.4834127495552076e-24  8.3829589409944954e-25  4.8665866160949011e-25  1.2323271269328439e-25  1.8775764033278710e-26  7.6219008546070507e-28  -5.5779737333740975e-28  -3.4874805909859444e-28  </DataArray> 
</PointData> 
</Piece>
</UnstructuredGrid>
</VTKFile>