<?xml version="1.0"?>
<VTKFile type="UnstructuredGrid"  version="0.1"  >
<UnstructuredGrid>
<Piece  NumberOfPoints="670" NumberOfCells="1192">
<Points>
<DataArray  type="Float64"  NumberOfComponents="3"  format="ascii">0 0 0  0.04 -1.31357e-10 0  0.0400579 0.0400582 0  0 0.04 0  0.08 -2.62713e-10 0  0.080123 0.0401093 0  0.12 -3.9407e-10 0  0.120183 0.040127 0  0.16 -5.25427e-10 0  0.160176 0.0400597 0  0.2 -6.56784e-10 0  0.199997 0.0399142 0  0.24 -7.8814e-10 0  0.239816 0.0400642 0  0.28 -9.19497e-10 0  0.279804 0.0401377 0  0.32 -1.05085e-09 0  0.319855 0.0401297 0  0.36 -1.18221e-09 0  0.359906 0.0400945 0  0.4 -1.31357e-09 0  0.399941 0.0400609 0  0.44 -1.44492e-09 0  0.439962 0.0400367 0  0.48 -1.57628e-09 0  0.479975 0.0400214 0  0.52 -1.70764e-09 0  0.519983 0.0400122 0  0.5600000000000001 -1.83899e-09 0  0.559987 0.0400069 0  0.6 -1.97035e-09 0  0.59999 0.040004 0  0.64 -2.10171e-09 0  0.639993 0.0400023 0  0.68 -2.23306e-09 0  0.679994 0.0400013 0  0.72 -2.36442e-09 0  0.7199950000000001 0.0400008 0  0.76 -2.49578e-09 0  0.759996 0.0400005 0  0.8 -2.62713e-09 0  0.799997 0.0400002 0  0.84 -2.75849e-09 0  0.839997 0.0400001 0  0.88 -2.88985e-09 0  0.8799979999999999 0.04 0  0.92 -3.0212e-09 0  0.919999 0.0399999 0  0.96 -3.15256e-09 0  0.959999 0.0399998 0  1 -3.28392e-09 0  1 0.0399998 0  1.04 -3.41527e-09 0  1.04 0.0399998 0  1.08 -3.54663e-09 0  1.08 0.0399998 0  1.12 -3.67799e-09 0  1.12 0.0399998 0  1.16 -3.80934e-09 0  1.16 0.0399999 0  1.2 -3.9407e-09 0  1.2 0.04 0  1.24 -4.07206e-09 0  1.24 0.04 0  1.28 -4.20341e-09 0  1.28 0.0400001 0  1.32 -4.33477e-09 0  1.32 0.0400001 0  1.36 -4.46613e-09 0  1.36 0.04 0  1.4 -4.59748e-09 0  1.4 0.04 0  1.44 -4.72884e-09 0  1.44 0.04 0  1.48 -4.8602e-09 0  1.48 0.04 0  1.52 -4.99156e-09 0  1.52 0.04 0  1.56 -5.12291e-09 0  1.56 0.04 0  1.6 -5.25427e-09 0  1.6 0.0400001 0  1.64 -5.38563e-09 0  1.64 0.0400001 0  1.68 -5.51698e-09 0  1.68 0.04 0  1.72 -5.64834e-09 0  1.72 0.04 0  1.76 -5.7797e-09 0  1.76 0.04 0  1.8 -5.91105e-09 0  1.8 0.04 0  1.84 -6.04241e-09 0  1.84 0.04 0  1.88 -6.17377e-09 0  1.88 0.0400001 0  1.92 -6.30512e-09 0  1.92 0.0400001 0  1.96 -6.43648e-09 0  1.96 0.0400001 0  2 -6.56784e-09 0  2 0.0400001 0  2.04 -6.69919e-09 0  2.04 0.0400001 0  2.08 -6.83055e-09 0  2.08 0.04 0  2.12 -6.96191e-09 0  2.12 0.04 0  2.16 -7.09326e-09 0  2.16 0.0400001 0  2.2 -7.22462e-09 0  2.2 0.04 0  2.24 -7.35598e-09 0  2.24 0.04 0  2.28 -7.48733e-09 0  2.28 0.0399999 0  2.32 -7.618690000000001e-09 0  2.32 0.04 0  2.36 -7.750049999999999e-09 0  2.36 0.04 0  2.4 -7.8814e-09 0  2.4 0.04 0  0.0401088 0.0801235 0  0 0.08 0  0.0802509 0.0802518 0  0.120434 0.0803392 0  0.160522 0.0801977 0  0.199995 0.0795328 0  0.239464 0.0802049 0  0.279544 0.08035689999999999 0  0.319711 0.0802867 0  0.359828 0.08018740000000001 0  0.399896 0.0801123 0  0.439933 0.0800646 0  0.479955 0.0800365 0  0.519968 0.08002049999999999 0  0.559976 0.0800116 0  0.599982 0.0800066 0  0.6399860000000001 0.0800039 0  0.679989 0.0800023 0  0.719991 0.0800014 0  0.759992 0.0800008 0  0.799994 0.0800004 0  0.839995 0.08000019999999999 0  0.879996 0.0799999 0  0.919997 0.07999970000000001 0  0.959999 0.0799996 0  1 0.0799995 0  1.04 0.0799995 0  1.08 0.0799996 0  1.12 0.07999970000000001 0  1.16 0.0799998 0  1.2 0.08 0  1.24 0.0800001 0  1.28 0.0800001 0  1.32 0.0800001 0  1.36 0.08 0  1.4 0.0799999 0  1.44 0.0799999 0  1.48 0.0799999 0  1.52 0.0799999 0  1.56 0.08 0  1.6 0.0800001 0  1.64 0.0800001 0  1.68 0.08 0  1.72 0.0799999 0  1.76 0.0799999 0  1.8 0.0799999 0  1.84 0.0799999 0  1.88 0.08 0  1.92 0.0800001 0  1.96 0.0800001 0  2 0.0800001 0  2.04 0.08 0  2.08 0.0799999 0  2.12 0.0799999 0  2.16 0.08 0  2.2 0.08 0  2.24 0.0799999 0  2.28 0.0799998 0  2.32 0.0799999 0  2.36 0.0799999 0  2.4 0.08 0  0.0401262 0.120184 0  0 0.12 0  0.0803378 0.120435 0  0.120779 0.12078 0  0.161485 0.120859 0  0.199996 0.117814 0  0.238503 0.120866 0  0.279195 0.120798 0  0.319616 0.120473 0  0.359799 0.120256 0  0.39988 0.120136 0  0.439921 0.120073 0  0.479944 0.120039 0  0.519958 0.120022 0  0.5599690000000001 0.120012 0  0.599976 0.120007 0  0.639981 0.120004 0  0.679985 0.120002 0  0.719987 0.120002 0  0.7599900000000001 0.120001 0  0.799991 0.12 0  0.839993 0.12 0  0.879995 0.12 0  0.919996 0.12 0  0.959998 0.119999 0  1 0.119999 0  1.04 0.119999 0  1.08 0.119999 0  1.12 0.12 0  1.16 0.12 0  1.2 0.12 0  1.24 0.12 0  1.28 0.12 0  1.32 0.12 0  1.36 0.12 0  1.4 0.12 0  1.44 0.12 0  1.48 0.12 0  1.52 0.12 0  1.56 0.12 0  1.6 0.12 0  1.64 0.12 0  1.68 0.12 0  1.72 0.12 0  1.76 0.12 0  1.8 0.12 0  1.84 0.12 0  1.88 0.12 0  1.92 0.12 0  1.96 0.12 0  2 0.12 0  2.04 0.12 0  2.08 0.12 0  2.12 0.12 0  2.16 0.12 0  2.2 0.12 0  2.24 0.12 0  2.28 0.12 0  2.32 0.12 0  2.36 0.12 0  2.4 0.12 0  0.0400582 0.160177 0  0 0.16 0  0.0801954 0.160525 0  0.120857 0.161488 0  0.164645 0.164645 0  0.2 0.15 0  0.235355 0.164645 0  0.279119 0.161498 0  0.319759 0.16055 0  0.359874 0.160228 0  0.399906 0.160104 0  0.439925 0.160051 0  0.479941 0.160027 0  0.519954 0.160014 0  0.559964 0.160008 0  0.5999719999999999 0.160005 0  0.639978 0.160003 0  0.679982 0.160002 0  0.719985 0.160001 0  0.759988 0.160001 0  0.79999 0.16 0  0.839992 0.16 0  0.8799940000000001 0.16 0  0.919996 0.159999 0  0.959998 0.159999 0  1 0.159999 0  1.04 0.159999 0  1.08 0.159999 0  1.12 0.16 0  1.16 0.16 0  1.2 0.16 0  1.24 0.16 0  1.28 0.16 0  1.32 0.16 0  1.36 0.16 0  1.4 0.16 0  1.44 0.16 0  1.48 0.16 0  1.52 0.16 0  1.56 0.16 0  1.6 0.16 0  1.64 0.16 0  1.68 0.16 0  1.72 0.16 0  1.76 0.16 0  1.8 0.16 0  1.84 0.16 0  1.88 0.16 0  1.92 0.16 0  1.96 0.16 0  2 0.16 0  2.04 0.16 0  2.08 0.16 0  2.12 0.16 0  2.16 0.16 0  2.2 0.16 0  2.24 0.16 0  2.28 0.16 0  2.32 0.16 0  2.36 0.16 0  2.4 0.16 0  0.0399111 0.2 0  0 0.2 0  0.0795281 0.2 0  0.117811 0.2 0  0.15 0.2 0  0.282167 0.2 0  0.25 0.2 0  0.320429 0.2 0  0.36003 0.200001 0  0.399944 0.200001 0  0.439934 0.200001 0  0.479942 0.200001 0  0.519953 0.200001 0  0.559963 0.200001 0  0.59997 0.200001 0  0.639976 0.200001 0  0.6799809999999999 0.200001 0  0.719984 0.200001 0  0.759987 0.200001 0  0.799989 0.2 0  0.839991 0.2 0  0.879993 0.2 0  0.919996 0.199999 0  0.959998 0.199999 0  1 0.199999 0  1.04 0.199999 0  1.08 0.199999 0  1.12 0.2 0  1.16 0.2 0  1.2 0.2 0  1.24 0.2 0  1.28 0.2 0  1.32 0.2 0  1.36 0.2 0  1.4 0.2 0  1.44 0.2 0  1.48 0.2 0  1.52 0.2 0  1.56 0.2 0  1.6 0.2 0  1.64 0.2 0  1.68 0.2 0  1.72 0.2 0  1.76 0.2 0  1.8 0.2 0  1.84 0.2 0  1.88 0.2 0  1.92 0.2 0  1.96 0.2 0  2 0.2 0  2.04 0.2 0  2.08 0.2 0  2.12 0.2 0  2.16 0.2 0  2.2 0.2 0  2.24 0.2 0  2.28 0.2 0  2.32 0.2 0  2.36 0.2 0  2.4 0.2 0  0.0400582 0.239823 0  0 0.24 0  0.0801953 0.239475 0  0.120857 0.238513 0  0.164645 0.235355 0  0.279119 0.238502 0  0.235355 0.235355 0  0.319759 0.239451 0  0.359873 0.239774 0  0.399905 0.239898 0  0.439925 0.239951 0  0.479941 0.239976 0  0.519954 0.239988 0  0.559964 0.239994 0  0.5999719999999999 0.239997 0  0.639977 0.239999 0  0.679982 0.24 0  0.719985 0.24 0  0.759987 0.24 0  0.79999 0.24 0  0.839992 0.24 0  0.8799940000000001 0.24 0  0.919996 0.239999 0  0.959998 0.239999 0  1 0.239999 0  1.04 0.239999 0  1.08 0.239999 0  1.12 0.24 0  1.16 0.24 0  1.2 0.24 0  1.24 0.24 0  1.28 0.24 0  1.32 0.24 0  1.36 0.24 0  1.4 0.24 0  1.44 0.24 0  1.48 0.24 0  1.52 0.24 0  1.56 0.24 0  1.6 0.24 0  1.64 0.24 0  1.68 0.24 0  1.72 0.24 0  1.76 0.24 0  1.8 0.24 0  1.84 0.24 0  1.88 0.24 0  1.92 0.24 0  1.96 0.24 0  2 0.24 0  2.04 0.24 0  2.08 0.24 0  2.12 0.24 0  2.16 0.24 0  2.2 0.24 0  2.24 0.24 0  2.28 0.24 0  2.32 0.24 0  2.36 0.24 0  2.4 0.24 0  0.0401261 0.279816 0  0 0.28 0  0.0803376 0.279565 0  0.120778 0.27922 0  0.161485 0.279141 0  0.2 0.25 0  0.199996 0.282186 0  0.238503 0.279135 0  0.279195 0.279202 0  0.319616 0.279528 0  0.359799 0.279745 0  0.39988 0.279865 0  0.43992 0.279929 0  0.479944 0.279962 0  0.519958 0.27998 0  0.559968 0.27999 0  0.599976 0.279995 0  0.639981 0.279998 0  0.679984 0.279999 0  0.719987 0.28 0  0.759989 0.28 0  0.799991 0.28 0  0.839993 0.28 0  0.879995 0.28 0  0.919997 0.279999 0  0.959998 0.279999 0  1 0.279999 0  1.04 0.279999 0  1.08 0.28 0  1.12 0.28 0  1.16 0.28 0  1.2 0.28 0  1.24 0.28 0  1.28 0.28 0  1.32 0.28 0  1.36 0.28 0  1.4 0.28 0  1.44 0.28 0  1.48 0.28 0  1.52 0.28 0  1.56 0.28 0  1.6 0.28 0  1.64 0.28 0  1.68 0.28 0  1.72 0.28 0  1.76 0.28 0  1.8 0.28 0  1.84 0.28 0  1.88 0.28 0  1.92 0.28 0  1.96 0.28 0  2 0.28 0  2.04 0.28 0  2.08 0.28 0  2.12 0.28 0  2.16 0.28 0  2.2 0.28 0  2.24 0.28 0  2.28 0.28 0  2.32 0.28 0  2.36 0.28 0  2.4 0.28 0  0.0401086 0.319877 0  0 0.32 0  0.08025060000000001 0.319748 0  0.120433 0.319661 0  0.160522 0.319802 0  0.199995 0.320467 0  0.239464 0.319795 0  0.279543 0.319643 0  0.31971 0.319714 0  0.359828 0.319813 0  0.399895 0.319889 0  0.439933 0.319937 0  0.479955 0.319965 0  0.519968 0.319981 0  0.559976 0.31999 0  0.599982 0.319995 0  0.6399860000000001 0.319998 0  0.679989 0.319999 0  0.719991 0.32 0  0.759992 0.32 0  0.799994 0.32 0  0.839995 0.32 0  0.879996 0.32 0  0.919998 0.32 0  0.959999 0.32 0  1 0.32 0  1.04 0.32 0  1.08 0.32 0  1.12 0.32 0  1.16 0.32 0  1.2 0.32 0  1.24 0.32 0  1.28 0.32 0  1.32 0.32 0  1.36 0.32 0  1.4 0.32 0  1.44 0.32 0  1.48 0.32 0  1.52 0.32 0  1.56 0.32 0  1.6 0.32 0  1.64 0.32 0  1.68 0.32 0  1.72 0.32 0  1.76 0.32 0  1.8 0.32 0  1.84 0.32 0  1.88 0.32 0  1.92 0.32 0  1.96 0.32 0  2 0.32 0  2.04 0.32 0  2.08 0.32 0  2.12 0.32 0  2.16 0.32 0  2.2 0.32 0  2.24 0.32 0  2.28 0.32 0  2.32 0.32 0  2.36 0.32 0  2.4 0.32 0  0.0400579 0.359942 0  0 0.36 0  0.0801229 0.359891 0  0.120183 0.359873 0  0.160175 0.35994 0  0.199997 0.360086 0  0.239816 0.359936 0  0.279804 0.359862 0  0.319855 0.359871 0  0.359906 0.359906 0  0.399941 0.35994 0  0.439962 0.359964 0  0.479975 0.359979 0  0.5199820000000001 0.359989 0  0.559987 0.359994 0  0.59999 0.359997 0  0.639993 0.359998 0  0.679994 0.359999 0  0.7199950000000001 0.36 0  0.759996 0.36 0  0.799997 0.36 0  0.839997 0.36 0  0.8799979999999999 0.36 0  0
[...]
<PointData  Scalars="f_10391-1"> 
<DataArray  type="Float64"  Name="f_10391-1"  format="ascii">1.4670843384531312e-03  1.4766021890298161e-03  1.7360919019305835e-03  1.7535320002174041e-03  1.4019353814648595e-03  1.6430987541506095e-03  1.2508930230738893e-03  1.4614263718701198e-03  1.0342160992838434e-03  1.1945528649402624e-03  7.8926347435898949e-04  8.9543286937496572e-04  5.6364770392836896e-04  6.3039995893023374e-04  3.8443673825636212e-04  4.2764219563407637e-04  2.5244775914667585e-04  2.8073245874585067e-04  1.5952209058203300e-04  1.7750761477577519e-04  9.6661132935826397e-05  1.0750471308983494e-04  5.5966681508741902e-05  6.2108064813839960e-05  3.0880888569067964e-05  3.4138689054930245e-05  1.6207810934574665e-05  1.7824551230270211e-05  8.0809168955566946e-06  8.8302621787783384e-06  3.8234114687342812e-06  4.1464123355610248e-06  1.7151037518957742e-06  1.8436376783801822e-06  7.2871681973771311e-07  7.7537627627082295e-07  2.9294857631707335e-07  3.0802287688975361e-07  1.1128777926238165e-07  1.1539264841663702e-07  3.9892012285920148e-08  4.0684518969532614e-08  1.3468935495304609e-08  1.3466937402188287e-08  4.2741877703271548e-09  4.1716203015414178e-09  1.2714137222087537e-09  1.2044117156977273e-09  3.5331965601326941e-10  3.2234581729394963e-10  9.1329455376269001e-11  7.9356534931683342e-11  2.1831315605343339e-11  1.7766911262892288e-11  4.7865901734751335e-12  3.5503385498528559e-12  9.5091844466451386e-13  6.1140856060225198e-13  1.6777595412029887e-13  8.3517485014035993e-14  2.5312831633385369e-14  6.5024767883500821e-15  2.9800605706938367e-15  -7.5568920848756176e-16  1.8474497721041137e-16  -4.6083385510439749e-16  -2.6391546296016190e-17  -1.1896718163162793e-16  -1.1994360569506711e-17  -2.1633841011691501e-17  -2.5415058513854792e-18  -2.8217657200498546e-18  -3.7026693490109084e-19  -1.9807663233748533e-19  -3.4747453076549689e-20  1.8214318375975842e-20  -4.5900462034388953e-22  9.0730075176536696e-21  5.7297267983616584e-22  1.7359241882233883e-21  1.2944261256605651e-22  2.0272551805315977e-22  1.6110392684573581e-23  9.6775003329943939e-24  9.6306437072706859e-25  -1.7391972038319421e-24  -7.4827480326663736e-26  -5.0557804060732366e-25  -2.7279614166251643e-26  -6.5366348638847194e-26  -3.4973715341848589e-27  -3.7798743992990410e-27  -1.9638604701698032e-28  3.0677324904229230e-28  1.3289228214543359e-29  9.9476386853557759e-29  4.0890432878385152e-30  1.1030988286333367e-29  3.9637640168261376e-31  3.8714400038426073e-31  8.3290928742243474e-33  -6.9495759806513100e-32  -2.6835427721106130e-33  -1.2552044915731066e-32  -3.5308036299990498e-34  -7.8946554435978682e-34  -1.2557422246101947e-35  2.6225217068076015e-35  1.5859956931472093e-36  9.0992639417896259e-36  2.2813179377314033e-37  6.3662094386957833e-37  7.9553307976824531e-39  -9.5525273849691419e-39  -7.0578826533138372e-40  -4.5920110945730999e-39  -7.3208624536421224e-41  -2.2103243489834686e-40  4.3161724309627967e-43  1.3368052733906576e-41  9.1479974913473862e-43  3.4756881481021225e-42  2.5451793097490184e-03  2.5686021942358706e-03  2.4213047313727965e-03  2.1535697469716635e-03  1.7144039527238156e-03  1.2208681637370343e-03  8.3175668653700618e-04  5.6235709562493135e-04  3.7205092679080498e-04  2.3687354630151804e-04  1.4384590973785271e-04  8.3014628276776431e-05  4.5464948286383266e-05  2.3616473177479494e-05  1.1629615061700296e-05  5.4256998460023252e-06  2.3962444092612750e-06  1.0006978621758562e-06  3.9459881136474242e-07  1.4666227315483368e-07  5.1263190517298329e-08  1.6805005140318507e-08  5.1484617822435110e-09  1.4673561839418578e-09  3.8665197691494815e-10  9.3385956464335567e-11  2.0404170230622913e-11  3.9457563728730532e-12  6.4742938522238287e-13  8.1032151114588087e-14  4.5497238652221221e-15  -1.2039751123434316e-15  -5.0241660558464642e-16  -1.0808413940833934e-16  -1.5113007576429930e-17  -9.0445935889811140e-19  2.0515265950260005e-19  8.1123739115920418e-20  1.5473668839627381e-20  1.7851313438928422e-21  5.5332821133986451e-23  -2.7528286154018015e-23  -7.1801073249596028e-24  -9.5220637411919738e-25  -5.6276191847985478e-26  5.8221022751785869e-27  1.9483750764354838e-27  2.4250222919783722e-28  1.1478736919755510e-29  -1.4466239968473407e-30  -3.4776736172715729e-31  -3.0382360012601179e-32  -1.6969800952594214e-34  2.7559940385243966e-34  3.1656969864426458e-35  9.5401796583191633e-37  -1.3976285490489413e-37  -1.6219142019648922e-38  -1.0316284920549689e-40  9.8721310452518147e-41  1.1908737299750700e-41  4.0358617922450178e-03  4.0452184930149342e-03  3.9006959091134495e-03  3.5087895110169410e-03  2.6985220956828250e-03  1.7219283955001703e-03  1.1398206321247160e-03  7.9021258403336907e-04  5.3408778595303284e-04  3.4280018725155718e-04  2.0798587244222089e-04  1.1936759167381157e-04  6.4885428518994214e-05  3.3431388032152375e-05  1.6328264483033070e-05  7.5571539572714275e-06  3.3115366946364096e-06  1.3721767206003532e-06  5.3679769617335344e-07  1.9783401596413308e-07  6.8518454021128573e-08  2.2228103030683843e-08  6.7266766673457706e-09  1.8886289736245467e-09  4.8824369002020602e-10  1.1494651946214271e-10  2.4216528025301355e-11  4.4220282079019373e-12  6.5180241466728004e-13  6.0572381436556718e-14  -3.2669289401413266e-15  -3.1578106301776525e-15  -8.7155737115937091e-16  -1.5944970703919224e-16  -1.9157855801481334e-17  -6.3995005749263143e-19  3.5782892403671023e-19  1.0526341695030676e-19  1.5766264535399576e-20  9.4234662756909109e-22  -1.9055310765625160e-22  -6.7423090415987418e-23  -1.0497537668608644e-23  -7.4496493242562611e-25  6.7439629750807695e-26  2.8130961763012096e-26  4.0943802366997126e-27  2.5684938480769358e-28  -2.1250041101304196e-29  -7.2528166238814450e-30  -8.2075827316015557e-31  -2.6438016356455357e-32  6.0439958858556079e-33  1.0526833305948317e-33  6.4632189864523483e-35  -2.3458737205034390e-36  -7.3027075325975895e-37  -4.2403921034525752e-38  2.1501219427416796e-39  4.3903554244423096e-40  2.3806901926761879e-41  6.3919402313527707e-03  6.3311997387863386e-03  6.3560818009154594e-03  5.9091817070996899e-03  4.6102357509952164e-03  2.1320071895641001e-03  1.4598585989163981e-03  1.1392898823186289e-03  7.8904248612267163e-04  5.0470064845711371e-04  3.0263247860936861e-04  1.7138210186085954e-04  9.1973881415524289e-05  4.6833613252602756e-05  2.2629655397524598e-05  1.0368579374249854e-05  4.4994726476700448e-06  1.8463078906788116e-06  7.1490108618571954e-07  2.6054180847498783e-07  8.9090507619819587e-08  2.8468011903908097e-08  8.4559549295707046e-09  2.3179807266857797e-09  5.8028623151261868e-10  1.3048315558451456e-10  2.5586925012017401e-11  4.1011709353649702e-12  4.3490004357555013e-13  -1.2706181810808510e-14  -2.1771426471838953e-14  -6.8500877469952372e-15  -1.4287370206989830e-15  -2.0785368530383458e-16  -1.5104597026912075e-17  2.1714070773702083e-18  1.0449446468235911e-18  2.1339484791324554e-19  2.5645399797671176e-20  7.2950244847538078e-22  -4.5210551541719331e-22  -1.1505317458662168e-22  -1.3811051868103230e-23  -2.5233933622215128e-25  2.4911985286347376e-25  5.3594660925752832e-26  5.1315985219564647e-27  -7.6730056119860531e-29  -1.0459113413124752e-28  -1.6318428255385527e-29  -1.0046533961909726e-30  7.9588829322210113e-32  2.4512746239951791e-32  2.3187077082015426e-33  1.8303510649385006e-35  -2.1107438698497572e-35  -2.3275813693317153e-36  -3.1162313965166627e-38  1.7087493856202921e-38  1.6734304216092980e-39  -1.3559915009192586e-42  9.7616632121748197e-03  9.4843117905127824e-03  1.0085001211099726e-02  9.7056970567266504e-03  9.0969977796403426e-03  1.7465383301449801e-03  2.1767509319165841e-03  1.1771101326177348e-03  7.2942655736679815e-04  4.2618258345361696e-04  2.3648227288489075e-04  1.2485215115354853e-04  6.2711749165583617e-05  2.9939199426904291e-05  1.3565771310669905e-05  5.8229648173766295e-06  2.3625334986761216e-06  9.0366063022103509e-07  3.2479080641835629e-07  1.0925263358646312e-07  3.4214442270484348e-08  9.9048330492011327e-09  2.6234247017784572e-09  6.2561752732344549e-10  1.3054137793219715e-10  2.2412095358243523e-11  2.6039365690042144e-12  -4.4864504914522624e-14  -1.3409679429153006e-13  -4.6368512976425225e-14  -1.0562140214392825e-14  -1.7028594284947632e-15  -1.5025821480029769e-16  1.4760989921307873e-17  9.6004541233942622e-18  2.2857160524297935e-18  3.3498751188296439e-19  2.1723909086386258e-20  -3.8149653846618692e-21  -1.5066115496189551e-21  -2.5696284688117968e-22  -2.1864405617409566e-23  1.0536422939649309e-24  6.6899392219926457e-25  1.0686922141412227e-25  6.7232484689124154e-27  -7.8927066366513035e-28  -2.5257042190900312e-28  -2.7799988311468451e-29  -2.9373163164687592e-31  3.7805225027049244e-31  5.8315093630347837e-32  2.8892749940781264e-33  -3.5068511499176892e-34  -7.4650833185714574e-35  -4.4249768580647098e-36  3.1590967395217170e-37  7.5655891723132755e-38  4.4341384532922294e-39  -4.8253403732338132e-40  1.4207511576509218e-02  1.3242029758985587e-02  1.5594267010598687e-02  1.4585700321492265e-02  1.2353718611480444e-02  2.7758723805814882e-03  4.7503519045465131e-03  1.6846092969260893e-03  9.9389490143829743e-04  5.6399131344410521e-04  3.0671538677427926e-04  1.5946670478929738e-04  7.9085301331440708e-05  3.7328507066342140e-05  1.6729380361543879e-05  7.1010070226208799e-06  2.8463270351570743e-06  1.0738301853017886e-06  3.7973868615267407e-07  1.2521068496181649e-07  3.8228407316721889e-08  1.0699397760570259e-08  2.7027010110372695e-09  5.9958301525605914e-10  1.1025439659462550e-10  1.4087802518172890e-11  -1.0629986806577729e-14  -7.1536553791358532e-13  -2.7334452092884276e-13  -6.7796779836705614e-14  -1.2021687173284035e-14  -1.2506516571383911e-15  7.4368229092649228e-17  7.2513838441860533e-17  1.9638048800327816e-17  3.2778162554774474e-18  2.7735827750359408e-19  -2.8700235785821042e-20  -1.6112175412440083e-20  -3.2929752974154396e-21  -3.6789309435249909e-22  -1.4743169626843843e-24  8.6505335499154662e-24  1.9012209346273207e-24  2.0472055599283862e-25  1.6226587298351781e-27  -3.5754010339528268e-27  -6.5522906253978232e-28  -4.8493557166319780e-29  2.8249677483941383e-30  1.1528826501040067e-30  1.2160939978971132e-31  4.0221430610592073e-34  -1.5451354581133501e-33  -1.9140439789652852e-34  -3.4023910126199261e-36  1.8453950425925421e-36  2.3744958948052110e-37  6.4144561707504362e-39  -3.1340589733752225e-39  1.8185607826414683e-02  1.6373847700834335e-02  2.2024699841350165e-02  2.0748031697380501e-02  1.4689332305543737e-02  9.2452743941205933e-03  9.8974434294093454e-03  6.1017777661915721e-03  3.6341978836547562e-03  2.1421060414795637e-03  1.2347117654250563e-03  6.8909635188433606e-04  3.7003482130746896e-04  1.9035576967465042e-04  9.3498372320734632e-05  4.3714753601190730e-05  1.9397518672417601e-05  8.1436112816311056e-06  3.2233708826033589e-06  1.1978567504197836e-06  4.1577333546381375e-07  1.3387023070043357e-07  3.9599707141486861e-08  1.0603399150961802e-08  2.5052856545751587e-09  4.9550106986596614e-10  7.0435925646280527e-11  1.6329234014238618e-12  -3.2715941386140691e-12  -1.4148600861977303e-12  -3.8499351442312875e-13  -7.5499052160503306e-14  -9.3010454916931100e-15  1.4870487410544462e-16  4.5386009373030858e-16  1.4259040631661725e-16  2.7109400978320965e-17  2.8755951936778165e-18  -1.3238358830691641e-19  -1.3645348790388862e-19  -3.2957594950737838e-20  -4.4253115086302495e-21  -1.4597184960781959e-22  8.8746502510768379e-23  2.4706252779975773e-23  3.3329297927679538e-24  1.3351516533253566e-25  -4.6865833330618070e-26  -1.2056962123746570e-26  -1.3465598021176580e-27  -1.8846628712697185e-29  1.9924958404249977e-29  3.4697084166474014e-30  2.1794892801483796e-31  -1.8917070153425230e-32  -5.4862193929439526e-33  -4.4591529937552626e-34  1.4988446207501324e-35  7.1044463415562149e-36  6.2752681232353411e-37  -5.7577981372295790e-39  -1.3314947069668789e-38  1.8908240670329483e-02  1.7356435695717518e-02  2.2820155573282243e-02  2.2111025085897282e-02  1.5770025179918528e-02  1.0318111110331004e-02  6.5826708049271853e-03  4.0513212478660845e-03  2.4185644636182699e-03  1.3972050059133866e-03  7.7803641108578072e-04  4.1599446018059718e-04  2.1282774198836296e-04  1.0385837369543620e-04  4.8191532959313455e-05  2.1193223853487073e-05  8.8019415431714361e-06  3.4380195136215883e-06  1.2565595166069153e-06  4.2691218767387659e-07  1.3358898938476951e-07  3.7975748801037279e-08  9.5814116223327685e-09  2.0481652575248121e-09  3.2739257902893603e-10  1.7690866285369778e-11  -1.2501970135697699e-11  -6.4109892890071287e-12  -1.9378411928607851e-12  -4.2307060274693608e-13  -6.1560314448391983e-14  -1.6913347736789226e-15  2.3450983515835184e-15  8.8986352869446477e-16  1.9457753199195496e-16  2.5453570175875637e-17  1.2964593691176520e-19  -9.3369053812065179e-19  -2.7485577073315894e-19  -4.4205090020841274e-20  -2.7782134431826503e-21  6.7515355247144754e-22  2.5197625733314934e-22  4.1300848858033436e-23  2.7255939849012729e-24  -4.5516590510600841e-25  -1.6370294277484837e-25  -2.3138753827739854e-26  -1.0003823998808828e-27  2.8463024319119807e-28  7.0441631085905363e-29  6.9472718292775749e-30  -5.7809747541322962e-32  -1.1891241453585221e-31  -1.6542117752737896e-32  -6.3149320913179128e-34  1.3447816902463776e-34  2.4558162352244720e-35  1.3500939754063994e-36  -1.0696221198322776e-37  -4.8985268729732949e-38  1.7481869463730974e-02  1.6814292441229190e-02  1.8963377421184820e-02  1.8320943164807441e-02  1.4419830495506217e-02  1.0015405567075487e-02  6.6295097434004623e-03  4.1899740574044180e-03  2.5396468552510675e-03  1.4777720180222250e-03  8.2467933692196205e-04  4.4049601731799347e-04  2.2464259990974877e-04  1.0907815516354461e-04  5.0272081371517986e-05  2.1916301385517476e-05  9.0011668211755723e-06  3.4659538219483686e-06  1.2433701615683279e-06  4.1202429580514221e-07  1.2454179115935365e-07  3.3638085167029422e-08  7.8040178259894199e-09  1.4103635545011572e-09  1.2616889779886068e-10  -3.7444203717476267e-11  -2.5161723957992001e-11  -8.6102880413815532e-12  -2.1077658414858256e-12  -3.5975790153237821e-13  -2.4744312553494952e-14  9.6311286263213501e-15  4.7664753081704274e-15  1.2142569054166338e-15  1.9268045335713095e-16  9.5919980901939391e-18  -5.0957795699757443e-18  -1.9430310278786574e-18  -3.7622222124493030e-19  -3.5492914960578488e-20  3.4649100216796074e-21  2.1014275516722973e-21  4.2451080962738336e-22  4.0349372924747175e-23  -2.7310696221639154e-24  -1.7309144256641915e-24  -3.0798580859735518e-25  -2.2004139118969545e-26  2.7880638558315300e-27  1.0354409590480803e-27  1.3539991285745066e-28  3.7508810211062121e-30  -1.8938698523515418e-30  -3.7926195655199176e-31  -2.8645045859068973e-32  1.5264774793442016e-33  6.2671058529800017e-34  6.4178688176926077e-35  4.8108716888944108e-37  -6.5430623488186794e-37  -1.5168426424279322e-37  1.6832869965614981e-02  1.6552899749905509e-02  1.7428777494064504e-02  1.6522761157519997e-02  1.3463266615338041e-02  9.7424783963449176e-03  6.5694294979138420e-03  4.1968441498536867e-03  2.5588608286394353e-03  1.4926575761821975e-03  8.3296856875081187e-04  4.4404984592780807e-04  2.2563496390452957e-04  1.0898162695927400e-04  4.9872263816177352e-05  2.1540608639740983e-05  8.7404613687523567e-06  3.3123861715342641e-06  1.1632314675033413e-06  3.7428805612614458e-07  1.0838874225221265e-07  2.7344474265981000e-08  5.5815995802884255e-09  7.0581150706495409e-10  -7.0573774478181082e-11  -8.3955867788768011e-11  -3.3553832549887691e-11  -9.2950298485549346e-12  -1.8482315655384902e-12  -1.9950965586864498e-13  2.7641238632413109e-14  2.1672032188070767e-14  6.5673089017166607e-15  1.2497470844333829e-15  1.1266619673041075e-16  -2.0508448665938469e-17  -1.1607257398352824e-17  -2.7343080837719877e-18  -3.4847780335613131e-19  5.2178971745328150e-21  1.4352528369709271e-20  3.6772024417995285e-21  4.7039022071304583e-22  -5.0569841942282731e-25  -1.4533535054827439e-23  -3.3639426058489969e-24  -3.4969569658325063e-25  1.3491039219732050e-26  1.1603379869517011e-26  2.0027910392074801e-27  1.2346073862024798e-28  -2.0055372076094677e-29  -6.0850848197653069e-30  -6.6074436830569253e-31  4.4590789251089659e-34  1.1145182189970232e-32  1.6626828095812895e-33  7.5264599038826155e-35  -1.2037544823832303e-35  -2.4270239004362729e-36  -2.5237717222239780e-37  </DataArray> 
</PointData> 
</Piece>
</UnstructuredGrid>
</VTKFile>