<?xml version="1.0"?>
<VTKFile type="UnstructuredGrid"  version="0.1"  >
<UnstructuredGrid>
<Piece  NumberOfPoints="670" NumberOfCells="1192">
<Points>
<DataArray  type="Float64"  NumberOfComponents="3"  format="ascii">0 0 0  0.04 -1.31357e-10 0  0.0400579 0.0400582 0  0 0.04 0  0.08 -2.62713e-10 0  0.080123 0.0401093 0  0.12 -3.9407e-10 0  0.120183 0.040127 0  0.16 -5.25427e-10 0  0.160176 0.0400597 0  0.2 -6.56784e-10 0  0.199997 0.0399142 0  0.24 -7.8814e-10 0  0.239816 0.0400642 0  0.28 -9.19497e-10 0  0.279804 0.0401377 0  0.32 -1.05085e-09 0  0.319855 0.0401297 0  0.36 -1.18221e-09 0  0.359906 0.0400945 0  0.4 -1.31357e-09 0  0.399941 0.0400609 0  0.44 -1.44492e-09 0  0.439962 0.0400367 0  0.48 -1.57628e-09 0  0.479975 0.0400214 0  0.52 -1.70764e-09 0  0.519983 0.0400122 0  0.5600000000000001 -1.83899e-09 0  0.559987 0.0400069 0  0.6 -1.97035e-09 0  0.59999 0.040004 0  0.64 -2.10171e-09 0  0.639993 0.0400023 0  0.68 -2.23306e-09 0  0.679994 0.0400013 0  0.72 -2.36442e-09 0  0.7199950000000001 0.0400008 0  0.76 -2.49578e-09 0  0.759996 0.0400005 0  0.8 -2.62713e-09 0  0.799997 0.0400002 0  0.84 -2.75849e-09 0  0.839997 0.0400001 0  0.88 -2.88985e-09 0  0.8799979999999999 0.04 0  0.92 -3.0212e-09 0  0.919999 0.0399999 0  0.96 -3.15256e-09 0  0.959999 0.0399998 0  1 -3.28392e-09 0  1 0.0399998 0  1.04 -3.41527e-09 0  1.04 0.0399998 0  1.08 -3.54663e-09 0  1.08 0.0399998 0  1.12 -3.67799e-09 0  1.12 0.0399998 0  1.16 -3.80934e-09 0  1.16 0.0399999 0  1.2 -3.9407e-09 0  1.2 0.04 0  1.24 -4.07206e-09 0  1.24 0.04 0  1.28 -4.20341e-09 0  1.28 0.0400001 0  1.32 -4.33477e-09 0  1.32 0.0400001 0  1.36 -4.46613e-09 0  1.36 0.04 0  1.4 -4.59748e-09 0  1.4 0.04 0  1.44 -4.72884e-09 0  1.44 0.04 0  1.48 -4.8602e-09 0  1.48 0.04 0  1.52 -4.99156e-09 0  1.52 0.04 0  1.56 -5.12291e-09 0  1.56 0.04 0  1.6 -5.25427e-09 0  1.6 0.0400001 0  1.64 -5.38563e-09 0  1.64 0.0400001 0  1.68 -5.51698e-09 0  1.68 0.04 0  1.72 -5.64834e-09 0  1.72 0.04 0  1.76 -5.7797e-09 0  1.76 0.04 0  1.8 -5.91105e-09 0  1.8 0.04 0  1.84 -6.04241e-09 0  1.84 0.04 0  1.88 -6.17377e-09 0  1.88 0.0400001 0  1.92 -6.30512e-09 0  1.92 0.0400001 0  1.96 -6.43648e-09 0  1.96 0.0400001 0  2 -6.56784e-09 0  2 0.0400001 0  2.04 -6.69919e-09 0  2.04 0.0400001 0  2.08 -6.83055e-09 0  2.08 0.04 0  2.12 -6.96191e-09 0  2.12 0.04 0  2.16 -7.09326e-09 0  2.16 0.0400001 0  2.2 -7.22462e-09 0  2.2 0.04 0  2.24 -7.35598e-09 0  2.24 0.04 0  2.28 -7.48733e-09 0  2.28 0.0399999 0  2.32 -7.618690000000001e-09 0  2.32 0.04 0  2.36 -7.750049999999999e-09 0  2.36 0.04 0  2.4 -7.8814e-09 0  2.4 0.04 0  0.0401088 0.0801235 0  0 0.08 0  0.0802509 0.0802518 0  0.120434 0.0803392 0  0.160522 0.0801977 0  0.199995 0.0795328 0  0.239464 0.0802049 0  0.279544 0.08035689999999999 0  0.319711 0.0802867 0  0.359828 0.08018740000000001 0  0.399896 0.0801123 0  0.439933 0.0800646 0  0.479955 0.0800365 0  0.519968 0.08002049999999999 0  0.559976 0.0800116 0  0.599982 0.0800066 0  0.6399860000000001 0.0800039 0  0.679989 0.0800023 0  0.719991 0.0800014 0  0.759992 0.0800008 0  0.799994 0.0800004 0  0.839995 0.08000019999999999 0  0.879996 0.0799999 0  0.919997 0.07999970000000001 0  0.959999 0.0799996 0  1 0.0799995 0  1.04 0.0799995 0  1.08 0.0799996 0  1.12 0.07999970000000001 0  1.16 0.0799998 0  1.2 0.08 0  1.24 0.0800001 0  1.28 0.0800001 0  1.32 0.0800001 0  1.36 0.08 0  1.4 0.0799999 0  1.44 0.0799999 0  1.48 0.0799999 0  1.52 0.0799999 0  1.56 0.08 0  1.6 0.0800001 0  1.64 0.0800001 0  1.68 0.08 0  1.72 0.0799999 0  1.76 0.0799999 0  1.8 0.0799999 0  1.84 0.0799999 0  1.88 0.08 0  1.92 0.0800001 0  1.96 0.0800001 0  2 0.0800001 0  2.04 0.08 0  2.08 0.0799999 0  2.12 0.0799999 0  2.16 0.08 0  2.2 0.08 0  2.24 0.0799999 0  2.28 0.0799998 0  2.32 0.0799999 0  2.36 0.0799999 0  2.4 0.08 0  0.0401262 0.120184 0  0 0.12 0  0.0803378 0.120435 0  0.120779 0.12078 0  0.161485 0.120859 0  0.199996 0.117814 0  0.238503 0.120866 0  0.279195 0.120798 0  0.319616 0.120473 0  0.359799 0.120256 0  0.39988 0.120136 0  0.439921 0.120073 0  0.479944 0.120039 0  0.519958 0.120022 0  0.5599690000000001 0.120012 0  0.599976 0.120007 0  0.639981 0.120004 0  0.679985 0.120002 0  0.719987 0.120002 0  0.7599900000000001 0.120001 0  0.799991 0.12 0  0.839993 0.12 0  0.879995 0.12 0  0.919996 0.12 0  0.959998 0.119999 0  1 0.119999 0  1.04 0.119999 0  1.08 0.119999 0  1.12 0.12 0  1.16 0.12 0  1.2 0.12 0  1.24 0.12 0  1.28 0.12 0  1.32 0.12 0  1.36 0.12 0  1.4 0.12 0  1.44 0.12 0  1.48 0.12 0  1.52 0.12 0  1.56 0.12 0  1.6 0.12 0  1.64 0.12 0  1.68 0.12 0  1.72 0.12 0  1.76 0.12 0  1.8 0.12 0  1.84 0.12 0  1.88 0.12 0  1.92 0.12 0  1.96 0.12 0  2 0.12 0  2.04 0.12 0  2.08 0.12 0  2.12 0.12 0  2.16 0.12 0  2.2 0.12 0  2.24 0.12 0  2.28 0.12 0  2.32 0.12 0  2.36 0.12 0  2.4 0.12 0  0.0400582 0.160177 0  0 0.16 0  0.0801954 0.160525 0  0.120857 0.161488 0  0.164645 0.164645 0  0.2 0.15 0  0.235355 0.164645 0  0.279119 0.161498 0  0.319759 0.16055 0  0.359874 0.160228 0  0.399906 0.160104 0  0.439925 0.160051 0  0.479941 0.160027 0  0.519954 0.160014 0  0.559964 0.160008 0  0.5999719999999999 0.160005 0  0.639978 0.160003 0  0.679982 0.160002 0  0.719985 0.160001 0  0.759988 0.160001 0  0.79999 0.16 0  0.839992 0.16 0  0.8799940000000001 0.16 0  0.919996 0.159999 0  0.959998 0.159999 0  1 0.159999 0  1.04 0.159999 0  1.08 0.159999 0  1.12 0.16 0  1.16 0.16 0  1.2 0.16 0  1.24 0.16 0  1.28 0.16 0  1.32 0.16 0  1.36 0.16 0  1.4 0.16 0  1.44 0.16 0  1.48 0.16 0  1.52 0.16 0  1.56 0.16 0  1.6 0.16 0  1.64 0.16 0  1.68 0.16 0  1.72 0.16 0  1.76 0.16 0  1.8 0.16 0  1.84 0.16 0  1.88 0.16 0  1.92 0.16 0  1.96 0.16 0  2 0.16 0  2.04 0.16 0  2.08 0.16 0  2.12 0.16 0  2.16 0.16 0  2.2 0.16 0  2.24 0.16 0  2.28 0.16 0  2.32 0.16 0  2.36 0.16 0  2.4 0.16 0  0.0399111 0.2 0  0 0.2 0  0.0795281 0.2 0  0.117811 0.2 0  0.15 0.2 0  0.282167 0.2 0  0.25 0.2 0  0.320429 0.2 0  0.36003 0.200001 0  0.399944 0.200001 0  0.439934 0.200001 0  0.479942 0.200001 0  0.519953 0.200001 0  0.559963 0.200001 0  0.59997 0.200001 0  0.639976 0.200001 0  0.6799809999999999 0.200001 0  0.719984 0.200001 0  0.759987 0.200001 0  0.799989 0.2 0  0.839991 0.2 0  0.879993 0.2 0  0.919996 0.199999 0  0.959998 0.199999 0  1 0.199999 0  1.04 0.199999 0  1.08 0.199999 0  1.12 0.2 0  1.16 0.2 0  1.2 0.2 0  1.24 0.2 0  1.28 0.2 0  1.32 0.2 0  1.36 0.2 0  1.4 0.2 0  1.44 0.2 0  1.48 0.2 0  1.52 0.2 0  1.56 0.2 0  1.6 0.2 0  1.64 0.2 0  1.68 0.2 0  1.72 0.2 0  1.76 0.2 0  1.8 0.2 0  1.84 0.2 0  1.88 0.2 0  1.92 0.2 0  1.96 0.2 0  2 0.2 0  2.04 0.2 0  2.08 0.2 0  2.12 0.2 0  2.16 0.2 0  2.2 0.2 0  2.24 0.2 0  2.28 0.2 0  2.32 0.2 0  2.36 0.2 0  2.4 0.2 0  0.0400582 0.239823 0  0 0.24 0  0.0801953 0.239475 0  0.120857 0.238513 0  0.164645 0.235355 0  0.279119 0.238502 0  0.235355 0.235355 0  0.319759 0.239451 0  0.359873 0.239774 0  0.399905 0.239898 0  0.439925 0.239951 0  0.479941 0.239976 0  0.519954 0.239988 0  0.559964 0.239994 0  0.5999719999999999 0.239997 0  0.639977 0.239999 0  0.679982 0.24 0  0.719985 0.24 0  0.759987 0.24 0  0.79999 0.24 0  0.839992 0.24 0  0.8799940000000001 0.24 0  0.919996 0.239999 0  0.959998 0.239999 0  1 0.239999 0  1.04 0.239999 0  1.08 0.239999 0  1.12 0.24 0  1.16 0.24 0  1.2 0.24 0  1.24 0.24 0  1.28 0.24 0  1.32 0.24 0  1.36 0.24 0  1.4 0.24 0  1.44 0.24 0  1.48 0.24 0  1.52 0.24 0  1.56 0.24 0  1.6 0.24 0  1.64 0.24 0  1.68 0.24 0  1.72 0.24 0  1.76 0.24 0  1.8 0.24 0  1.84 0.24 0  1.88 0.24 0  1.92 0.24 0  1.96 0.24 0  2 0.24 0  2.04 0.24 0  2.08 0.24 0  2.12 0.24 0  2.16 0.24 0  2.2 0.24 0  2.24 0.24 0  2.28 0.24 0  2.32 0.24 0  2.36 0.24 0  2.4 0.24 0  0.0401261 0.279816 0  0 0.28 0  0.0803376 0.279565 0  0.120778 0.27922 0  0.161485 0.279141 0  0.2 0.25 0  0.199996 0.282186 0  0.238503 0.279135 0  0.279195 0.279202 0  0.319616 0.279528 0  0.359799 0.279745 0  0.39988 0.279865 0  0.43992 0.279929 0  0.479944 0.279962 0  0.519958 0.27998 0  0.559968 0.27999 0  0.599976 0.279995 0  0.639981 0.279998 0  0.679984 0.279999 0  0.719987 0.28 0  0.759989 0.28 0  0.799991 0.28 0  0.839993 0.28 0  0.879995 0.28 0  0.919997 0.279999 0  0.959998 0.279999 0  1 0.279999 0  1.04 0.279999 0  1.08 0.28 0  1.12 0.28 0  1.16 0.28 0  1.2 0.28 0  1.24 0.28 0  1.28 0.28 0  1.32 0.28 0  1.36 0.28 0  1.4 0.28 0  1.44 0.28 0  1.48 0.28 0  1.52 0.28 0  1.56 0.28 0  1.6 0.28 0  1.64 0.28 0  1.68 0.28 0  1.72 0.28 0  1.76 0.28 0  1.8 0.28 0  1.84 0.28 0  1.88 0.28 0  1.92 0.28 0  1.96 0.28 0  2 0.28 0  2.04 0.28 0  2.08 0.28 0  2.12 0.28 0  2.16 0.28 0  2.2 0.28 0  2.24 0.28 0  2.28 0.28 0  2.32 0.28 0  2.36 0.28 0  2.4 0.28 0  0.0401086 0.319877 0  0 0.32 0  0.08025060000000001 0.319748 0  0.120433 0.319661 0  0.160522 0.319802 0  0.199995 0.320467 0  0.239464 0.319795 0  0.279543 0.319643 0  0.31971 0.319714 0  0.359828 0.319813 0  0.399895 0.319889 0  0.439933 0.319937 0  0.479955 0.319965 0  0.519968 0.319981 0  0.559976 0.31999 0  0.599982 0.319995 0  0.6399860000000001 0.319998 0  0.679989 0.319999 0  0.719991 0.32 0  0.759992 0.32 0  0.799994 0.32 0  0.839995 0.32 0  0.879996 0.32 0  0.919998 0.32 0  0.959999 0.32 0  1 0.32 0  1.04 0.32 0  1.08 0.32 0  1.12 0.32 0  1.16 0.32 0  1.2 0.32 0  1.24 0.32 0  1.28 0.32 0  1.32 0.32 0  1.36 0.32 0  1.4 0.32 0  1.44 0.32 0  1.48 0.32 0  1.52 0.32 0  1.56 0.32 0  1.6 0.32 0  1.64 0.32 0  1.68 0.32 0  1.72 0.32 0  1.76 0.32 0  1.8 0.32 0  1.84 0.32 0  1.88 0.32 0  1.92 0.32 0  1.96 0.32 0  2 0.32 0  2.04 0.32 0  2.08 0.32 0  2.12 0.32 0  2.16 0.32 0  2.2 0.32 0  2.24 0.32 0  2.28 0.32 0  2.32 0.32 0  2.36 0.32 0  2.4 0.32 0  0.0400579 0.359942 0  0 0.36 0  0.0801229 0.359891 0  0.120183 0.359873 0  0.160175 0.35994 0  0.199997 0.360086 0  0.239816 0.359936 0  0.279804 0.359862 0  0.319855 0.359871 0  0.359906 0.359906 0  0.399941 0.35994 0  0.439962 0.359964 0  0.479975 0.359979 0  0.5199820000000001 0.359989 0  0.559987 0.359994 0  0.59999 0.359997 0  0.639993 0.359998 0  0.679994 0.359999 0  0.7199950000000001 0.36 0  0.759996 0.36 0  0.799997 0.36 0  0.839997 0.36 0  0.8799979999999999 0.36 0  0
[...]
<PointData  Scalars="f_10391-1"> 
<DataArray  type="Float64"  Name="f_10391-1"  format="ascii">8.7623410243599809e-03  8.7109071485284174e-03  9.1703786530667741e-03  9.2684858524863124e-03  8.4213355477005432e-03  8.8451344328825381e-03  7.9380284753189402e-03  8.3107326889510971e-03  7.2941961377506175e-03  7.5901511492889829e-03  6.5524120888629540e-03  6.7682597694757969e-03  5.7938230468129555e-03  5.9558867478383222e-03  5.0670927135399585e-03  5.1982387712450383e-03  4.3804904695400491e-03  4.4887490739542926e-03  3.7344465419887839e-03  3.8218689368576947e-03  3.1334529400838594e-03  3.2017205111947011e-03  2.5849904818295646e-03  2.6366343389420946e-03  2.0959662379822558e-03  2.1339837095581990e-03  1.6704257999933059e-03  1.6977777232235465e-03  1.3088784599827015e-03  1.3281761356487135e-03  1.0086524368849686e-03  1.0220164139141208e-03  7.6470801407490217e-04  7.7379341007678367e-04  5.7054670476863203e-04  5.7661729141242552e-04  4.1902643388727829e-04  4.2300497750602306e-04  3.0299931237015571e-04  3.0555250305237390e-04  2.1575961045430355e-04  2.1735998921755144e-04  1.5131749884464299e-04  1.5229526837784387e-04  1.0453145688488362e-04  1.0510915986611592e-04  7.1134264996799976e-05  7.1462061732415784e-05  4.7687890925546370e-05  4.7864653014716046e-05  3.1495505792399828e-05  3.1583405151938480e-05  2.0492929063633649e-05  2.0531317142940558e-05  1.3136228762249152e-05  1.3148517297066500e-05  8.2954038766770066e-06  8.2951540772012177e-06  5.1604438995535884e-06  5.1551243045176592e-06  3.1622491081621482e-06  3.1556919177118320e-06  1.9086936923105202e-06  1.9026529539925315e-06  1.1346834240538623e-06  1.1297915311341027e-06  6.6431554706839452e-07  6.6064911841223035e-07  3.8299618419373629e-07  3.8039382659897394e-07  2.1741547084130452e-07  2.1564467931087570e-07  1.2151072828988954e-07  1.2034717253046034e-07  6.6852240811336973e-08  6.6110541967790111e-08  3.6202644700464506e-08  3.5742567101906768e-08  1.9294355706210909e-08  1.9016044955033414e-08  1.0118717600967449e-08  9.9542799439175888e-09  5.2210999120699363e-09  5.1260984011674122e-09  2.6501628407159014e-09  2.5964505267076865e-09  1.3230808436772957e-09  1.2933431965542915e-09  6.4957415212494752e-10  6.3344437567882152e-10  3.1356003931257597e-10  3.0498598408865340e-10  1.4879174511181564e-10  1.4432403423593273e-10  6.9392866478908810e-11  6.7110418387212922e-11  3.1800554520522515e-11  3.0657218128517311e-11  1.4316554358857644e-11  1.3754954896436907e-11  6.3302316006149065e-12  6.0597361041548837e-12  2.7482975405182392e-12  2.6205480750179919e-12  1.1712459184978409e-12  1.1120916182177778e-12  4.8982449922898093e-13  4.6297129416384399e-13  2.0095494635931195e-13  1.8900604524072783e-13  8.0848805313685943e-14  7.5638222996699385e-14  3.1890059894008944e-14  2.9664044245281677e-14  1.2341479383750940e-14  1.1410473195200282e-14  4.7306577183842889e-15  4.3485991916484123e-15  1.9443539455488861e-15  1.7769843292637131e-15  1.3184496034194024e-15  1.1466337216500485e-15  1.0575050027835313e-02  1.0694553359037290e-02  1.0183480537679555e-02  9.5076018958076408e-03  8.5238428950970575e-03  7.4082698096303683e-03  6.4282993306157702e-03  5.5888159900414321e-03  4.8158805648555059e-03  4.0869186239109630e-03  3.4084504802411831e-03  2.7928515417443003e-03  2.2491286335783655e-03  1.7809988660232525e-03  1.3873469188642857e-03  1.0634919404452451e-03  8.0249543121007738e-04  5.9622736342108214e-04  4.3623992643834232e-04  3.1437557594201932e-04  2.2316452101327702e-04  1.5606290491452127e-04  1.0752141882015877e-04  7.2983962211139517e-05  4.8808985975613001e-05  3.2160276652212034e-05  2.0877553442659787e-05  1.3352410969982619e-05  8.4127704194602664e-06  5.2214460814161916e-06  3.1921507473990218e-06  1.9221204362511252e-06  1.1398351323325287e-06  6.6561565282228344e-07  3.8271646342961660e-07  2.1664642940179242e-07  1.2072354774379365e-07  6.6212565842551795e-08  3.5738428406279813e-08  1.8980703288695177e-08  9.9175090056296197e-09  5.0972321901302965e-09  2.5765100282847539e-09  1.2806035272672969e-09  6.2574627467473892e-10  3.0053344139679917e-10  1.4184142067874069e-10  6.5769976149332230e-11  2.9954256252232189e-11  1.3396146447289481e-11  5.8812200661100007e-12  2.5338867071346230e-12  1.0710116752078991e-12  4.4394657547529921e-13  1.8039535639419849e-13  7.1828644146011236e-14  2.8016185050468029e-14  1.0712711375805998e-14  4.0557673316454863e-15  1.6422506112815776e-15  1.0433375961077679e-15  1.3054863609483486e-02  1.3170260468414725e-02  1.2621518477687029e-02  1.1752072086840506e-02  1.0211483388106240e-02  8.3515328736145991e-03  7.1388784893321984e-03  6.2315416260802694e-03  5.3679389964010459e-03  4.5312303717378261e-03  3.7501026802630225e-03  3.0475945062406347e-03  2.4350094731941155e-03  1.9144262543721972e-03  1.4818135945045229e-03  1.1295916532383327e-03  8.4823084063086196e-04  6.2752857775131914e-04  4.5743407672623132e-04  3.2856185812537821e-04  2.3255750578949784e-04  1.6220663923243394e-04  1.1149064270112995e-04  7.5516335749174665e-05  5.0403190295819431e-05  3.3149705887683758e-05  2.1482970163827186e-05  1.3717267569902489e-05  8.6291822014453289e-06  5.3476729219225823e-06  3.2644869140733793e-06  1.9628058217448739e-06  1.1622668257471615e-06  6.7772082184539979e-07  3.8909837882164266e-07  2.1992545457443864e-07  1.2236008875609535e-07  6.7002318590977345e-08  3.6104380489752702e-08  1.9141714025386244e-08  9.9834333034974006e-09  5.1213056244286095e-09  2.5834646052409443e-09  1.2813279185833843e-09  6.2468932165711595e-10  2.9930822710929198e-10  1.4090382274272136e-10  6.5158123265867087e-11  2.9589717956635971e-11  1.3192161177916979e-11  5.7724583074398535e-12  2.4781728563216020e-12  1.0434511283421952e-12  4.3073686460498038e-13  1.7424709746907230e-13  6.9045437309491465e-14  2.6789195530121507e-14  1.0184459677410830e-14  3.8302264845155611e-15  1.5374474252943242e-15  9.6911765231263655e-16  1.6736031801076662e-02  1.6782247532837878e-02  1.6407037197413245e-02  1.5489060455135029e-02  1.3298593508209843e-02  9.0917147871138835e-03  7.8839117949950667e-03  7.1653658644939919e-03  6.1713940270284127e-03  5.1572065908352749e-03  4.2171229230102657e-03  3.3880385816234971e-03  2.6794914422059689e-03  2.0879777215310679e-03  1.6038139567929527e-03  1.2145371806893323e-03  9.0682414762990621e-04  6.6756593895739844e-04  4.8451940641173693e-04  3.4670175163990005e-04  2.4457532335413776e-04  1.7008165767310769e-04  1.1659143868093551e-04  7.8779644641821070e-05  5.2465291789544627e-05  3.4435707283535286e-05  2.2274096088251034e-05  1.4197074193834053e-05  8.9158968563064193e-06  5.5163790074093160e-06  3.3621700595843618e-06  2.0184223374946499e-06  1.1933794414134954e-06  6.9480620467803935e-07  3.9829888835559095e-07  2.2477786145122186e-07  1.2486273667100748e-07  6.8262133257277495e-08  3.6721820141042101e-08  1.9435340602108395e-08  1.0118273476661643e-08  5.1806680764501500e-09  2.6082232768438465e-09  1.2909020480902013e-09  6.2796593189461244e-10  3.0017339343320834e-10  1.4095948157198599e-10  6.5011156861423472e-11  2.9439503033839695e-11  1.3085501900943039e-11  5.7072326384315043e-12  2.4416427900446403e-12  1.0242180647122791e-12  4.2108824259786622e-13  1.6959894661008112e-13  6.6884683440378076e-14  2.5816592321022675e-14  9.7586854743510058e-15  3.6459301145320261e-15  1.4513079731637747e-15  9.0912860165164981e-16  2.1627704527167432e-02  2.1458539041910803e-02  2.1683877937032997e-02  2.0961441831827313e-02  2.0121605775106119e-02  8.6163013883151646e-03  9.4593628143444467e-03  7.2751427147556757e-03  5.9539724660288623e-03  4.7844598345589606e-03  3.7898281530000968e-03  2.9627681457303390e-03  2.2866716570765270e-03  1.7423283822019019e-03  1.3104454365796461e-03  9.7272015178770464e-04  7.1245947537849203e-04  5.1483476948668708e-04  3.6697721455988222e-04  2.5799910388320756e-04  1.7887445773803303e-04  1.2228638663987269e-04  8.2424047383222721e-05  5.4769356299917566e-05  3.5873758105261225e-05  2.3159700677909553e-05  1.4734903217079559e-05  9.2378127736328289e-06  5.7061725215673616e-06  3.4723225521231567e-06  2.0813143318619012e-06  1.2286793329296915e-06  7.1426800893454636e-07  4.0882900614958208e-07  2.3036346934395241e-07  1.2776379287745005e-07  6.9735234801249676e-08  3.7451736446186217e-08  1.9787388006629593e-08  1.0282998430627968e-08  5.2550861177619979e-09  2.6404518279299913e-09  1.3041264171165823e-09  6.3299957272620422e-10  3.0187182898665696e-10  1.4140459511202470e-10  6.5043638726163296e-11  2.9370839706905660e-11  1.3015415054651062e-11  5.6582000730612554e-12  2.4121959064414075e-12  1.0080476235776005e-12  4.1274926507498287e-13  1.6550492490085136e-13  6.4956003434488104e-14  2.4940221611744675e-14  9.3725133854335515e-15  3.4781289905834377e-15  1.3729591752220680e-15  8.5473987084200172e-16  2.7609093114803532e-02  2.6764970172091264e-02  2.8706542518735008e-02  2.7329648355123446e-02  2.4842623396265525e-02  1.0870291372320913e-02  1.4249613722899951e-02  8.6331700395694960e-03  6.8493997471923435e-03  5.3957146734775899e-03  4.2128124719250561e-03  3.2567473474948948e-03  2.4908909507009372e-03  1.8837287259825322e-03  1.4078331743609368e-03  1.0393750873783254e-03  7.5773265275067708e-04  5.4532801281389901e-04  3.8733177791400891e-04  2.7144869722425775e-04  1.8766977506337376e-04  1.2797437485312821e-04  8.6060443668256416e-05  5.7065207468257739e-05  3.7304678718446639e-05  2.4039627891281128e-05  1.5268456539743005e-05  9.5566302143655784e-06  5.8937915850469160e-06  3.5809893209952268e-06  2.1432150459649123e-06  1.2633321927434770e-06  7.3331616783936362e-07  4.1909993657311903e-07  2.3578982846011781e-07  1.3056888276272032e-07  7.1151610671259862e-08  3.8148763364691584e-08  2.0120732430851315e-08  1.0437293674505483e-08  5.3238019850539250e-09  2.6696247897093260e-09  1.3157464655793670e-09  6.3720821899640559e-10  3.0315496790503838e-10  1.4164517605077054e-10  6.4977636029189702e-11  2.9255851758727656e-11  1.2924063652861923e-11  5.5996534188014864e-12  2.3786065236041272e-12  9.9012544903286021e-13  4.0369278939781644e-13  1.6112730373832547e-13  6.2919737184402044e-14  2.4025018843740315e-14  8.9732372446825627e-15  3.3064009567039664e-15  1.2937464078212538e-15  8.0004397341613223e-16  3.2978079685150680e-02  3.1307228086981692e-02  3.6460562910399133e-02  3.4668013063729089e-02  2.7934287328153295e-02  2.1031560321673502e-02  2.2131299945356193e-02  1.6766531652659816e-02  1.2766471941709779e-02  9.8780244757487659e-03  7.6825373488387952e-03  5.9643499356963137e-03  4.6048986023480079e-03  3.5280202060323008e-03  2.6785248847272436e-03  2.0131142053245819e-03  1.4966204234475730e-03  1.0999296554819182e-03  7.9874617667690284e-04  5.7287326553662286e-04  4.0566471311261233e-04  2.8353342708670968e-04  1.9555066268799032e-04  1.3305619712303442e-04  8.9298490630843595e-05  5.9103218710840447e-05  3.8570152150881167e-05  2.4814577496287048e-05  1.5736156639053619e-05  9.8346042460228438e-06  6.0563841145397369e-06  3.6745061861774999e-06  2.1960579876848153e-06  1.2926380741893872e-06  7.4924872237490121e-07  4.2757947122547081e-07  2.4020012202949201e-07  1.3280565015333610e-07  7.2254608371803446e-08  3.8675497242145097e-08  2.0362911910908042e-08  1.0543526672025603e-08  5.3675741465532149e-09  2.6860590148692244e-09  1.3209674147089083e-09  6.3825643772400674e-10  3.0290419259967151e-10  1.4115451256350510e-10  6.4569426008190324e-11  2.8983749292405046e-11  1.2761991028379215e-11  5.5099207436679858e-12  2.3315563334922006e-12  9.6652196151233476e-13  3.9229434487057459e-13  1.5580811412590558e-13  6.0514921266675921e-14  2.2969689613508818e-14  8.5223654949220595e-15  3.1162801647616388e-15  1.2077963025496104e-15  7.4118714933144161e-16  3.4822415884455317e-02  3.3422642791700811e-02  3.8318425759576530e-02  3.6967711459611093e-02  2.9757883554352490e-02  2.3149388642273422e-02  1.7960620416178935e-02  1.3886198208357684e-02  1.0746755301073987e-02  8.3124173064554226e-03  6.4097849143597589e-03  4.9165198940052625e-03  3.7447468601869592e-03  2.8284943268304334e-03  2.1163736602446562e-03  1.5673121662058919e-03  1.1479992971752402e-03  8.3118159103485133e-04  5.9457929539763954e-04  4.2005605143757889e-04  2.9297568346920431e-04  2.0167953480276039e-04  1.3698771821617410e-04  9.1787991691934104e-05  6.0658480453992001e-05  3.9528391447402208e-05  2.5395881328395466e-05  1.6083166239721514e-05  1.0038258811894602e-05  6.1737489332406008e-06  3.7408368480995468e-06  2.2327646628261163e-06  1.3124895062080061e-06  7.5971468665073128e-07  4.3294074591452915e-07  2.4285616554156566e-07  1.3406940007729610e-07  7.2825664204956356e-08  3.8915692210647132e-08  2.0453058855891069e-08  1.0570331303932911e-08  5.3705005081117005e-09  2.6818255928716647e-09  1.3159025937556032e-09  6.3427191875760687e-10  3.0023350210179571e-10  1.3952092975774835e-10  6.3631280303034031e-11  2.8470560379782782e-11  1.2492374305209093e-11  5.3731821713592671e-12  2.2643913858798507e-12  9.3449940849553098e-13  3.7745304781766219e-13  1.4911519293838936e-13  5.7576154574380054e-14  2.1712626548748439e-14  7.9976303919179209e-15  2.8999584228825425e-15  1.1121851883275408e-15  6.7584571622418207e-16  3.4124891479490861e-02  3.3601383629201675e-02  3.5163913361780125e-02  3.3807476614262422e-02  2.8935107317202342e-02  2.3297309426961631e-02  1.8453729026339995e-02  1.4448560532676846e-02  1.1234731795830491e-02  8.6901069467995029e-03  6.6864371861185077e-03  5.1135423470566928e-03  3.8828144319743474e-03  2.9242497583479156e-03  2.1822164232813031e-03  1.6122476416114404e-03  1.1784074867706436e-03  8.5158881109322884e-04  6.0813937697451524e-04  4.2896749033274271e-04  2.9876620712880625e-04  2.0539451354904345e-04  1.3933680101521962e-04  9.3251837164023859e-05  6.1555188570103776e-05  4.0068287981936573e-05  2.5714325212447573e-05  1.6266898456533363e-05  1.0141665546684033e-05  6.2303090146637615e-06  3.7707438104114976e-06  2.2479300874158721e-06  1.3197673981623802e-06  7.6293952815697062e-07  4.3418882767611978e-07  2.4320843164503051e-07  1.3406125003635858e-07  7.2704765715753702e-08  3.8785059465026457e-08  2.0347505459767637e-08  1.0495467806364863e-08  5.3214518539034068e-09  2.6514551790192648e-09  1.2979139043653695e-09  6.2400655294313037e-10  2.9456412627706992e-10  1.3648158674018802e-10  6.2046411378789820e-11  2.7665571395178153e-11  1.2093721128543915e-11  5.1805632387071685e-12  2.1735490484177247e-12  8.9267117184687267e-13  3.5864764578708957e-13  1.4086031709206863e-13  5.4038710945190475e-14  2.0232995796349694e-14  7.3931037400372818e-15  2.6563998986424480e-15  1.0070824065813606e-15  6.0117518630216029e-16  3.3719361190200949e-02  3.3530671822876258e-02  3.3877213075458615e-02  3.2238332985628129e-02  2.8176110260614114e-02  2.3194169506560686e-02  1.8550689105808281e-02  1.4600586188098596e-02  1.1380697939046761e-02  8.8091247784406173e-03  6.7760655840062552e-03  5.1781507545572867e-03  3.9282000192933965e-03  2.9555457079047621e-03  2.2035008732452293e-03  1.6265234954404497e-03  1.1878553449195355e-03  8.5773317751798269e-04  6.1206284389665917e-04  4.3141935593316450e-04  3.0025892663845723e-04  2.0627230926337299e-04  1.3983251707570848e-04  9.3515879541922274e-05  6.1683684990817728e-05  4.0120695016110983e-05  2.5727072443939464e-05  1.6261123628294016e-05  1.0128983266750392e-05  6.2166214383689116e-06  3.7586757464416095e-06  2.2383374286492800e-06  1.3126353423872857e-06  7.5789100461379020e-07  4.3075273731314331e-07  2.4094630331872403e-07  1.3261512017757721e-07  7.1804698383263446e-08  3.8238652288429354e-08  2.0023539832463027e-08  1.0307695341637906e-08  5.2149857882661240e-09  2.5923740507304347e-09  1.2658148264230450e-09  6.0692842845687536e-10  2.8566497491704651e-10  1.3193965251785835e-10  5.9775967815763676e-11  2.6554029199377386e-11  1.1560840072420907e-11  4.9304455385022530e-12  2.0586367869459376e-12  8.4100922193983808e-13  3.3592768091788808e-13  1.3109020890095979e-13  4.9932571780106385e-14  1.8547448681656796e-14  6.7178242991829531e-15  2.3916801897486111e-15  8.9760396263435811e-16  5.0412907601184993e-16  </DataArray> 
</PointData> 
</Piece>
</UnstructuredGrid>
</VTKFile>