<?xml version="1.0"?>
<VTKFile type="UnstructuredGrid"  version="0.1"  >
<UnstructuredGrid>
<Piece  NumberOfPoints="670" NumberOfCells="1192">
<Points>
<DataArray  type="Float64"  NumberOfComponents="3"  format="ascii">0 0 0  0.04 -1.31357e-10 0  0.0400579 0.0400582 0  0 0.04 0  0.08 -2.62713e-10 0  0.080123 0.0401093 0  0.12 -3.9407e-10 0  0.120183 0.040127 0  0.16 -5.25427e-10 0  0.160176 0.0400597 0  0.2 -6.56784e-10 0  0.199997 0.0399142 0  0.24 -7.8814e-10 0  0.239816 0.0400642 0  0.28 -9.19497e-10 0  0.279804 0.0401377 0  0.32 -1.05085e-09 0  0.319855 0.0401297 0  0.36 -1.18221e-09 0  0.359906 0.0400945 0  0.4 -1.31357e-09 0  0.399941 0.0400609 0  0.44 -1.44492e-09 0  0.439962 0.0400367 0  0.48 -1.57628e-09 0  0.479975 0.0400214 0  0.52 -1.70764e-09 0  0.519983 0.0400122 0  0.5600000000000001 -1.83899e-09 0  0.559987 0.0400069 0  0.6 -1.97035e-09 0  0.59999 0.040004 0  0.64 -2.10171e-09 0  0.639993 0.0400023 0  0.68 -2.23306e-09 0  0.679994 0.0400013 0  0.72 -2.36442e-09 0  0.7199950000000001 0.0400008 0  0.76 -2.49578e-09 0  0.759996 0.0400005 0  0.8 -2.62713e-09 0  0.799997 0.0400002 0  0.84 -2.75849e-09 0  0.839997 0.0400001 0  0.88 -2.88985e-09 0  0.8799979999999999 0.04 0  0.92 -3.0212e-09 0  0.919999 0.0399999 0  0.96 -3.15256e-09 0  0.959999 0.0399998 0  1 -3.28392e-09 0  1 0.0399998 0  1.04 -3.41527e-09 0  1.04 0.0399998 0  1.08 -3.54663e-09 0  1.08 0.0399998 0  1.12 -3.67799e-09 0  1.12 0.0399998 0  1.16 -3.80934e-09 0  1.16 0.0399999 0  1.2 -3.9407e-09 0  1.2 0.04 0  1.24 -4.07206e-09 0  1.24 0.04 0  1.28 -4.20341e-09 0  1.28 0.0400001 0  1.32 -4.33477e-09 0  1.32 0.0400001 0  1.36 -4.46613e-09 0  1.36 0.04 0  1.4 -4.59748e-09 0  1.4 0.04 0  1.44 -4.72884e-09 0  1.44 0.04 0  1.48 -4.8602e-09 0  1.48 0.04 0  1.52 -4.99156e-09 0  1.52 0.04 0  1.56 -5.12291e-09 0  1.56 0.04 0  1.6 -5.25427e-09 0  1.6 0.0400001 0  1.64 -5.38563e-09 0  1.64 0.0400001 0  1.68 -5.51698e-09 0  1.68 0.04 0  1.72 -5.64834e-09 0  1.72 0.04 0  1.76 -5.7797e-09 0  1.76 0.04 0  1.8 -5.91105e-09 0  1.8 0.04 0  1.84 -6.04241e-09 0  1.84 0.04 0  1.88 -6.17377e-09 0  1.88 0.0400001 0  1.92 -6.30512e-09 0  1.92 0.0400001 0  1.96 -6.43648e-09 0  1.96 0.0400001 0  2 -6.56784e-09 0  2 0.0400001 0  2.04 -6.69919e-09 0  2.04 0.0400001 0  2.08 -6.83055e-09 0  2.08 0.04 0  2.12 -6.96191e-09 0  2.12 0.04 0  2.16 -7.09326e-09 0  2.16 0.0400001 0  2.2 -7.22462e-09 0  2.2 0.04 0  2.24 -7.35598e-09 0  2.24 0.04 0  2.28 -7.48733e-09 0  2.28 0.0399999 0  2.32 -7.618690000000001e-09 0  2.32 0.04 0  2.36 -7.750049999999999e-09 0  2.36 0.04 0  2.4 -7.8814e-09 0  2.4 0.04 0  0.0401088 0.0801235 0  0 0.08 0  0.0802509 0.0802518 0  0.120434 0.0803392 0  0.160522 0.0801977 0  0.199995 0.0795328 0  0.239464 0.0802049 0  0.279544 0.08035689999999999 0  0.319711 0.0802867 0  0.359828 0.08018740000000001 0  0.399896 0.0801123 0  0.439933 0.0800646 0  0.479955 0.0800365 0  0.519968 0.08002049999999999 0  0.559976 0.0800116 0  0.599982 0.0800066 0  0.6399860000000001 0.0800039 0  0.679989 0.0800023 0  0.719991 0.0800014 0  0.759992 0.0800008 0  0.799994 0.0800004 0  0.839995 0.08000019999999999 0  0.879996 0.0799999 0  0.919997 0.07999970000000001 0  0.959999 0.0799996 0  1 0.0799995 0  1.04 0.0799995 0  1.08 0.0799996 0  1.12 0.07999970000000001 0  1.16 0.0799998 0  1.2 0.08 0  1.24 0.0800001 0  1.28 0.0800001 0  1.32 0.0800001 0  1.36 0.08 0  1.4 0.0799999 0  1.44 0.0799999 0  1.48 0.0799999 0  1.52 0.0799999 0  1.56 0.08 0  1.6 0.0800001 0  1.64 0.0800001 0  1.68 0.08 0  1.72 0.0799999 0  1.76 0.0799999 0  1.8 0.0799999 0  1.84 0.0799999 0  1.88 0.08 0  1.92 0.0800001 0  1.96 0.0800001 0  2 0.0800001 0  2.04 0.08 0  2.08 0.0799999 0  2.12 0.0799999 0  2.16 0.08 0  2.2 0.08 0  2.24 0.0799999 0  2.28 0.0799998 0  2.32 0.0799999 0  2.36 0.0799999 0  2.4 0.08 0  0.0401262 0.120184 0  0 0.12 0  0.0803378 0.120435 0  0.120779 0.12078 0  0.161485 0.120859 0  0.199996 0.117814 0  0.238503 0.120866 0  0.279195 0.120798 0  0.319616 0.120473 0  0.359799 0.120256 0  0.39988 0.120136 0  0.439921 0.120073 0  0.479944 0.120039 0  0.519958 0.120022 0  0.5599690000000001 0.120012 0  0.599976 0.120007 0  0.639981 0.120004 0  0.679985 0.120002 0  0.719987 0.120002 0  0.7599900000000001 0.120001 0  0.799991 0.12 0  0.839993 0.12 0  0.879995 0.12 0  0.919996 0.12 0  0.959998 0.119999 0  1 0.119999 0  1.04 0.119999 0  1.08 0.119999 0  1.12 0.12 0  1.16 0.12 0  1.2 0.12 0  1.24 0.12 0  1.28 0.12 0  1.32 0.12 0  1.36 0.12 0  1.4 0.12 0  1.44 0.12 0  1.48 0.12 0  1.52 0.12 0  1.56 0.12 0  1.6 0.12 0  1.64 0.12 0  1.68 0.12 0  1.72 0.12 0  1.76 0.12 0  1.8 0.12 0  1.84 0.12 0  1.88 0.12 0  1.92 0.12 0  1.96 0.12 0  2 0.12 0  2.04 0.12 0  2.08 0.12 0  2.12 0.12 0  2.16 0.12 0  2.2 0.12 0  2.24 0.12 0  2.28 0.12 0  2.32 0.12 0  2.36 0.12 0  2.4 0.12 0  0.0400582 0.160177 0  0 0.16 0  0.0801954 0.160525 0  0.120857 0.161488 0  0.164645 0.164645 0  0.2 0.15 0  0.235355 0.164645 0  0.279119 0.161498 0  0.319759 0.16055 0  0.359874 0.160228 0  0.399906 0.160104 0  0.439925 0.160051 0  0.479941 0.160027 0  0.519954 0.160014 0  0.559964 0.160008 0  0.5999719999999999 0.160005 0  0.639978 0.160003 0  0.679982 0.160002 0  0.719985 0.160001 0  0.759988 0.160001 0  0.79999 0.16 0  0.839992 0.16 0  0.8799940000000001 0.16 0  0.919996 0.159999 0  0.959998 0.159999 0  1 0.159999 0  1.04 0.159999 0  1.08 0.159999 0  1.12 0.16 0  1.16 0.16 0  1.2 0.16 0  1.24 0.16 0  1.28 0.16 0  1.32 0.16 0  1.36 0.16 0  1.4 0.16 0  1.44 0.16 0  1.48 0.16 0  1.52 0.16 0  1.56 0.16 0  1.6 0.16 0  1.64 0.16 0  1.68 0.16 0  1.72 0.16 0  1.76 0.16 0  1.8 0.16 0  1.84 0.16 0  1.88 0.16 0  1.92 0.16 0  1.96 0.16 0  2 0.16 0  2.04 0.16 0  2.08 0.16 0  2.12 0.16 0  2.16 0.16 0  2.2 0.16 0  2.24 0.16 0  2.28 0.16 0  2.32 0.16 0  2.36 0.16 0  2.4 0.16 0  0.0399111 0.2 0  0 0.2 0  0.0795281 0.2 0  0.117811 0.2 0  0.15 0.2 0  0.282167 0.2 0  0.25 0.2 0  0.320429 0.2 0  0.36003 0.200001 0  0.399944 0.200001 0  0.439934 0.200001 0  0.479942 0.200001 0  0.519953 0.200001 0  0.559963 0.200001 0  0.59997 0.200001 0  0.639976 0.200001 0  0.6799809999999999 0.200001 0  0.719984 0.200001 0  0.759987 0.200001 0  0.799989 0.2 0  0.839991 0.2 0  0.879993 0.2 0  0.919996 0.199999 0  0.959998 0.199999 0  1 0.199999 0  1.04 0.199999 0  1.08 0.199999 0  1.12 0.2 0  1.16 0.2 0  1.2 0.2 0  1.24 0.2 0  1.28 0.2 0  1.32 0.2 0  1.36 0.2 0  1.4 0.2 0  1.44 0.2 0  1.48 0.2 0  1.52 0.2 0  1.56 0.2 0  1.6 0.2 0  1.64 0.2 0  1.68 0.2 0  1.72 0.2 0  1.76 0.2 0  1.8 0.2 0  1.84 0.2 0  1.88 0.2 0  1.92 0.2 0  1.96 0.2 0  2 0.2 0  2.04 0.2 0  2.08 0.2 0  2.12 0.2 0  2.16 0.2 0  2.2 0.2 0  2.24 0.2 0  2.28 0.2 0  2.32 0.2 0  2.36 0.2 0  2.4 0.2 0  0.0400582 0.239823 0  0 0.24 0  0.0801953 0.239475 0  0.120857 0.238513 0  0.164645 0.235355 0  0.279119 0.238502 0  0.235355 0.235355 0  0.319759 0.239451 0  0.359873 0.239774 0  0.399905 0.239898 0  0.439925 0.239951 0  0.479941 0.239976 0  0.519954 0.239988 0  0.559964 0.239994 0  0.5999719999999999 0.239997 0  0.639977 0.239999 0  0.679982 0.24 0  0.719985 0.24 0  0.759987 0.24 0  0.79999 0.24 0  0.839992 0.24 0  0.8799940000000001 0.24 0  0.919996 0.239999 0  0.959998 0.239999 0  1 0.239999 0  1.04 0.239999 0  1.08 0.239999 0  1.12 0.24 0  1.16 0.24 0  1.2 0.24 0  1.24 0.24 0  1.28 0.24 0  1.32 0.24 0  1.36 0.24 0  1.4 0.24 0  1.44 0.24 0  1.48 0.24 0  1.52 0.24 0  1.56 0.24 0  1.6 0.24 0  1.64 0.24 0  1.68 0.24 0  1.72 0.24 0  1.76 0.24 0  1.8 0.24 0  1.84 0.24 0  1.88 0.24 0  1.92 0.24 0  1.96 0.24 0  2 0.24 0  2.04 0.24 0  2.08 0.24 0  2.12 0.24 0  2.16 0.24 0  2.2 0.24 0  2.24 0.24 0  2.28 0.24 0  2.32 0.24 0  2.36 0.24 0  2.4 0.24 0  0.0401261 0.279816 0  0 0.28 0  0.0803376 0.279565 0  0.120778 0.27922 0  0.161485 0.279141 0  0.2 0.25 0  0.199996 0.282186 0  0.238503 0.279135 0  0.279195 0.279202 0  0.319616 0.279528 0  0.359799 0.279745 0  0.39988 0.279865 0  0.43992 0.279929 0  0.479944 0.279962 0  0.519958 0.27998 0  0.559968 0.27999 0  0.599976 0.279995 0  0.639981 0.279998 0  0.679984 0.279999 0  0.719987 0.28 0  0.759989 0.28 0  0.799991 0.28 0  0.839993 0.28 0  0.879995 0.28 0  0.919997 0.279999 0  0.959998 0.279999 0  1 0.279999 0  1.04 0.279999 0  1.08 0.28 0  1.12 0.28 0  1.16 0.28 0  1.2 0.28 0  1.24 0.28 0  1.28 0.28 0  1.32 0.28 0  1.36 0.28 0  1.4 0.28 0  1.44 0.28 0  1.48 0.28 0  1.52 0.28 0  1.56 0.28 0  1.6 0.28 0  1.64 0.28 0  1.68 0.28 0  1.72 0.28 0  1.76 0.28 0  1.8 0.28 0  1.84 0.28 0  1.88 0.28 0  1.92 0.28 0  1.96 0.28 0  2 0.28 0  2.04 0.28 0  2.08 0.28 0  2.12 0.28 0  2.16 0.28 0  2.2 0.28 0  2.24 0.28 0  2.28 0.28 0  2.32 0.28 0  2.36 0.28 0  2.4 0.28 0  0.0401086 0.319877 0  0 0.32 0  0.08025060000000001 0.319748 0  0.120433 0.319661 0  0.160522 0.319802 0  0.199995 0.320467 0  0.239464 0.319795 0  0.279543 0.319643 0  0.31971 0.319714 0  0.359828 0.319813 0  0.399895 0.319889 0  0.439933 0.319937 0  0.479955 0.319965 0  0.519968 0.319981 0  0.559976 0.31999 0  0.599982 0.319995 0  0.6399860000000001 0.319998 0  0.679989 0.319999 0  0.719991 0.32 0  0.759992 0.32 0  0.799994 0.32 0  0.839995 0.32 0  0.879996 0.32 0  0.919998 0.32 0  0.959999 0.32 0  1 0.32 0  1.04 0.32 0  1.08 0.32 0  1.12 0.32 0  1.16 0.32 0  1.2 0.32 0  1.24 0.32 0  1.28 0.32 0  1.32 0.32 0  1.36 0.32 0  1.4 0.32 0  1.44 0.32 0  1.48 0.32 0  1.52 0.32 0  1.56 0.32 0  1.6 0.32 0  1.64 0.32 0  1.68 0.32 0  1.72 0.32 0  1.76 0.32 0  1.8 0.32 0  1.84 0.32 0  1.88 0.32 0  1.92 0.32 0  1.96 0.32 0  2 0.32 0  2.04 0.32 0  2.08 0.32 0  2.12 0.32 0  2.16 0.32 0  2.2 0.32 0  2.24 0.32 0  2.28 0.32 0  2.32 0.32 0  2.36 0.32 0  2.4 0.32 0  0.0400579 0.359942 0  0 0.36 0  0.0801229 0.359891 0  0.120183 0.359873 0  0.160175 0.35994 0  0.199997 0.360086 0  0.239816 0.359936 0  0.279804 0.359862 0  0.319855 0.359871 0  0.359906 0.359906 0  0.399941 0.35994 0  0.439962 0.359964 0  0.479975 0.359979 0  0.5199820000000001 0.359989 0  0.559987 0.359994 0  0.59999 0.359997 0  0.639993 0.359998 0  0.679994 0.359999 0  0.7199950000000001 0.36 0  0.759996 0.36 0  0.799997 0.36 0  0.839997 0.36 0  0.8799979999999999 0.36 0  0
[...]
<PointData  Scalars="f_10391-1"> 
<DataArray  type="Float64"  Name="f_10391-1"  format="ascii">7.1374597311618972e-03  7.0885522687012962e-03  7.5275992998419475e-03  7.6206650093897507e-03  6.8100920144373231e-03  7.2157021053418898e-03  6.3416512529028846e-03  6.6982165407634738e-03  5.7168966408880778e-03  5.9986951252798647e-03  5.0021035184156654e-03  5.2052338369750423e-03  4.2824987619318831e-03  4.4316712174046358e-03  3.6114729504662965e-03  3.7290865529875472e-03  3.0007943205298177e-03  3.0955129873232808e-03  2.4511354949769922e-03  2.5257862374485560e-03  1.9640075410000085e-03  2.0207912162389604e-03  1.5417245753078857e-03  1.5834173195105217e-03  1.1850409874096704e-03  1.2146945673564352e-03  8.9187669125580563e-04  9.1238384682872347e-04  6.5736627476153811e-04  6.7119678692819436e-04  4.7464406205945559e-04  4.8374712062546993e-04  3.3582924122981612e-04  3.4167613710704107e-04  2.3290430812397128e-04  2.3657148682203067e-04  1.5835959054663531e-04  1.6060038914833132e-04  1.0558346293337965e-04  1.0691425470779499e-04  6.9037822216395280e-05  6.9803278110188113e-05  4.4274330751423303e-05  4.4699045264356614e-05  2.7848834199594684e-05  2.8073788874138275e-05  1.7181120992840296e-05  1.7293402991139576e-05  1.0396087071989076e-05  1.0447685359376961e-05  6.1692868520983394e-06  6.1897590054365564e-06  3.5901007902658920e-06  3.5958895579889168e-06  2.0484992409957941e-06  2.0481251452188470e-06  1.1459460983965531e-06  1.1435602667606267e-06  6.2838421906634473e-07  6.2580711239928664e-07  3.3771070390324256e-07  3.3559803960569690e-07  1.7784484194752075e-07  1.7632214114316976e-07  9.1754231830407417e-08  9.0741579127509284e-08  4.6366421248071153e-08  4.5731319759840938e-08  2.2944081678145125e-08  2.2564050428994324e-08  1.1115192402592297e-08  1.0896722531811726e-08  5.2701607237097692e-09  5.1489739697926862e-09  2.4449156874458266e-09  2.3798630247542606e-09  1.1094301659044492e-09  1.0755709478915761e-09  4.9224831135209831e-10  4.7513709692969228e-10  2.1347981086558147e-10  2.0507569417973514e-10  9.0457329964662702e-11  8.6443247639110044e-11  3.7433059194879121e-11  3.5567801085062017e-11  1.5121109547950296e-11  1.4277664279088493e-11  5.9593570058883062e-12  5.5881818712495421e-12  2.2900658014157452e-12  2.1311049755638679e-12  8.5752089651116148e-13  7.9127988466727220e-13  3.1265777607751536e-13  2.8580531306833007e-13  1.1090645414131894e-13  1.0032111077023659e-13  3.8237442653982733e-14  3.4181509320070454e-14  1.2799083582950885e-14  1.1289377660784376e-14  4.1538814994957137e-15  3.6083681187000111e-15  1.3050553547431638e-15  1.1138693138981211e-15  3.9615797815299202e-16  3.3123498293569010e-16  1.1591299900771321e-16  9.4578134585684833e-17  3.2590190711714622e-17  2.5816039424082927e-17  8.7693651912402327e-18  6.6950966365191020e-18  2.2456451267722996e-18  1.6346030623621459e-18  5.4328141537527352e-19  3.7046372342754979e-19  1.2662361849221749e-19  7.8097907316329419e-20  5.4579621713741667e-20  2.7095970952362882e-20  8.8696104988938360e-03  8.9820550911113798e-03  8.4958858723719003e-03  7.8427138767504199e-03  6.8878705321297022e-03  5.8077853720327486e-03  4.8661269184583841e-03  4.0796174818678085e-03  3.3828918792347599e-03  2.7537281493647567e-03  2.1944381367552880e-03  1.7111283248648385e-03  1.3059351957658283e-03  9.7601728413788057e-04  7.1465326119640510e-04  5.1286506944230915e-04  3.6084370874650041e-04  2.4896752420013578e-04  1.6847943252071469e-04  1.1183546498256019e-04  7.2821042894666144e-05  4.6515222141759880e-05  2.9146045143686527e-05  1.7913751814634497e-05  1.0798750120972804e-05  6.3841567343697728e-06  3.7010045595861527e-06  2.1035318774281719e-06  1.1719710851530271e-06  6.3994046449680847e-07  3.4239426255893421e-07  1.7946482672455244e-07  9.2128160020239112e-08  4.6307584586171959e-08  2.2784347508133800e-08  1.0970210185631083e-08  5.1670960313802414e-09  2.3800147571719924e-09  1.0716435650302979e-09  4.7149888233099595e-10  2.0261722121435834e-10  8.5001134118009217e-11  3.4792940239981957e-11  1.3887210464255573e-11  5.4013837055896264e-12  2.0456556213133940e-12  7.5374338251733724e-13  2.6992778144804395e-13  9.3843407605118558e-14  3.1630085042641659e-14  1.0318750809700365e-14  3.2517333210081156e-15  9.8735893120307257e-16  2.8794126320217266e-16  8.0302264082966126e-17  2.1287793270343542e-17  5.3165860995639350e-18  1.2330585456855751e-18  2.5872683887985551e-19  4.7039680154761243e-20  1.2049056139736963e-20  1.1240910855785633e-02  1.1348201761893566e-02  1.0828863765564283e-02  9.9900812770237681e-03  8.4979962808359958e-03  6.6973308710938147e-03  5.5170738274082547e-03  4.6559903991152318e-03  3.8694437178790949e-03  3.1378318254352958e-03  2.4831040511042856e-03  1.9206351367396905e-03  1.4541053154064432e-03  1.0786508019354267e-03  7.8445826116878942e-04  5.5956883670093692e-04  3.9159707208581132e-04  2.6890133347812721e-04  1.8119932950176726e-04  1.1981957776636155e-04  7.7752652501600437e-05  4.9509066151259922e-05  3.0931829138945198e-05  1.8959972429227778e-05  1.1400248268501349e-05  6.7232233877114506e-06  3.8883540723958348e-06  2.2048938299259838e-06  1.2256211842620423e-06  6.6769087153134377e-07  3.5640558067841929e-07  1.8636091142474563e-07  9.5431206915123076e-08  4.7843994890336289e-08  2.3476513724637665e-08  1.1271124221264139e-08  5.2926874216763749e-09  2.4299471540782790e-09  1.0903143194844125e-09  4.7791226357004844e-10  2.0453876682357294e-10  8.5428456886307854e-11  3.4799469179942734e-11  1.3816559673102424e-11  5.3427282277599988e-12  2.0104697459037825e-12  7.3550422264118236e-13  2.6130081626962540e-13  9.0031366013328331e-14  3.0037416340794962e-14  9.6853813079539261e-15  3.0110844601626103e-15  8.9982747785874606e-16  2.5744061730187619e-16  7.0123448075618369e-17  1.8038381878485266e-17  4.3265345575738054e-18  9.4612683697274811e-19  1.7983769074208201e-19  2.5628072889697376e-20  2.3296192772492746e-21  1.4772459707646526e-02  1.4810970573092649e-02  1.4463457481452380e-02  1.3576866824022019e-02  1.1458749334647782e-02  7.3946179249505485e-03  6.1875166977849554e-03  5.4948995130154844e-03  4.5823272400137898e-03  3.6830515333683422e-03  2.8804738079578267e-03  2.2023719639091711e-03  1.6500502777190911e-03  1.2127859728637959e-03  8.7498746657238612e-04  6.1981408509569915e-04  4.3113063987274138e-04  2.9447771410062983e-04  1.9750160651514853e-04  1.3005505276973453e-04  8.4077590598693176e-05  5.3354693212306769e-05  3.3230810817361547e-05  2.0310222500304358e-05  1.2179202774870518e-05  7.1642338818993605e-06  4.1332405833951206e-06  2.3381665309295622e-06  1.2966533682545176e-06  7.0473835033932182e-07  3.7529708321874159e-07  1.9577002417381007e-07  1.0000328389087903e-07  5.0008629499436803e-08  2.4473450239406978e-08  1.1716886328388713e-08  5.4857018872959844e-09  2.5106071433068340e-09  1.1226927958823404e-09  4.9031012187769146e-10  2.0901664081457282e-10  8.6924040137700551e-11  3.5242691194139505e-11  1.3920534756271123e-11  5.3523846913801703e-12  2.0014281764036856e-12  7.2705643472823075e-13  2.5626324300247583e-13  8.7507739502817550e-14  2.8897770192666906e-14  9.2081128867092146e-15  2.8231655845960840e-15  8.2976122953340176e-16  2.3261149977607421e-16  6.1749335500715101e-17  1.5351109146482560e-17  3.5075931393055459e-18  7.0998180444120663e-19  1.1566592009307708e-19  8.6454255476951960e-21  -5.1171101823360371e-21  1.9489124818880620e-02  1.9312911644911595e-02  1.9560545042377094e-02  1.8855243317818290e-02  1.8022392162928398e-02  6.8157661731497463e-03  7.6171464579480918e-03  5.5730561561775733e-03  4.3835049059379478e-03  3.3667955815515791e-03  2.5368745395847533e-03  1.8781993367477123e-03  1.3669670473466255e-03  9.7810597706990648e-04  6.8801111039224806e-04  4.7568002434219734e-04  3.2319753473457444e-04  2.1576347177516643e-04  1.4149845079685340e-04  9.1139571520444153e-05  5.7643742163741301e-05  3.5792760113260365e-05  2.1814014710116634e-05  1.3046329834868743e-05  7.6550225275516307e-06  4.4057227195176396e-06  2.4864504714765562e-06  1.3756917213268634e-06  7.4596922555434897e-07  3.9632860513687795e-07  2.0625004949830186e-07  1.0509918631389861e-07  5.2423499982231703e-08  2.5587030023971898e-08  1.2215650948430667e-08  5.7021698552600729e-09  2.6013620994387613e-09  1.1592925344707804e-09  5.0442041259476143e-10  2.1416743567941893e-10  8.8675356111264897e-11  3.5779740614818905e-11  1.4057688839115875e-11  5.3733349863002227e-12  1.9960868981620136e-12  7.1977850423379859e-13  2.5158538125073691e-13  8.5093637023112907e-14  2.7792214023018794e-14  8.7421448094373730e-15  2.6393514919684118e-15  7.6131543413220266e-16  2.0845148006495877e-16  5.3652525056842126e-17  1.2775932822794034e-17  2.7321404865629052e-18  4.8990662024309270e-19  5.7168737764716289e-20  -6.2794334891734491e-21  -1.1396440839878497e-20  2.5290690696202767e-02  2.4439211678021131e-02  2.6401264416854912e-02  2.5032567351128701e-02  2.2527120918999367e-02  8.9034356804267301e-03  1.2136053143187338e-02  6.8042319635680986e-03  5.1760905545313145e-03  3.8934637361733031e-03  2.8904479254631679e-03  2.1157318497997683e-03  1.5258375586256674e-03  1.0835726213358956e-03  7.5734929746359959e-04  5.2077129266651792e-04  3.5215858048255665e-04  2.3411787566609722e-04  1.5296779659310959e-04  9.8197412440768843e-05  6.1918979193404270e-05  3.8339737759298775e-05  2.3305535202675450e-05  1.3903955773546835e-05  8.1389552927398633e-06  4.6735010115613285e-06  2.6316343564400684e-06  1.4527543635656088e-06  7.8597900273134628e-07  4.1662646631711832e-07  2.1630098193421962e-07  1.0995058905047890e-07  5.4702576691681084e-08  2.6627082264771743e-08  1.2675599892577184e-08  5.8986618835006057e-09  2.6820973680590498e-09  1.1909955119374100e-09  5.1619998137004162e-10  2.1823835910534709e-10  8.9939952111980881e-11  3.6103542353168342e-11  1.4104103556889859e-11  5.3568277250057731e-12  1.9757647874759592e-12  7.0670534768245325e-13  2.4474359595920699e-13  8.1901710251329271e-14  2.6418476893987724e-14  8.1879280807349676e-15  2.4280254598463143e-15  6.8483801901783076e-16  1.8214037332558639e-16  4.5049022020184608e-17  1.0107278063791137e-17  1.9500280423667316e-18  2.7479370632055938e-19  2.2192997425534503e-21  -1.9465110016479852e-20  -1.6532967447128189e-20  3.0493780271843428e-02  2.8814312874499991e-02  3.3993431308850387e-02  3.2218277108285412e-02  2.5503694188225685e-02  1.8710128185296378e-02  1.9747986963652781e-02  1.4512216496687517e-02  1.0661549587957663e-02  7.9340256901092258e-03  5.9142179826615167e-03  4.3838275453253585e-03  3.2184536577734122e-03  2.3350601888906292e-03  1.6718603698753266e-03  1.1800741014617209e-03  8.2052638302480265e-04  5.6168358050438176e-04  3.7833921503750554e-04  2.5064679985504096e-04  1.6325499540104010e-04  1.0450429342597045e-04  6.5723197272457315e-05  4.0595759025427925e-05  2.4619812219960904e-05  1.4655636927263426e-05  8.5604479514415966e-06  4.9050711429888885e-06  2.7561657942146616e-06  1.5182315512418503e-06  8.1960219078694619e-07  4.3346527756173319e-07  2.2451208308046308e-07  1.1384142934326012e-07  5.6489634551465466e-08  2.7420010047831226e-08  1.3013907070292153e-08  6.0365101827060761e-09  2.7351598886220929e-09  1.2099260774426261e-09  5.2221778686333263e-10  2.1977100093391053e-10  9.0113542660356095e-11  3.5970288770582942e-11  1.3964114311045959e-11  5.2664118869134710e-12  1.9269987759969028e-12  6.8302760446509853e-13  2.3408095508602556e-13  7.7383469477468799e-14  2.4603005460104277e-14  7.4933645669635765e-15  2.1745253048372145e-15  5.9653927053882391e-16  1.5281573569174139e-16  3.5784737396660999e-17  7.3342250730793015e-18  1.1686315095237620e-18  6.9696224140836642e-20  -4.7020923626911841e-20  -3.0118903591855255e-20  -2.0071233341036729e-20  3.2201026219580382e-02  3.0792198647853097e-02  3.5718556910594217e-02  3.4396403600641300e-02  2.7226114525533297e-02  2.0686011402105891e-02  1.5611956346285967e-02  1.1684506863062211e-02  8.7152915845690807e-03  6.4690560318068765e-03  4.7664904389829966e-03  3.4784310504430852e-03  2.5098834822150631e-03  1.7882994175437768e-03  1.2568789923375571e-03  8.7065337693304737e-04  5.9401554083036794e-04  3.9892590866604075e-04  2.6357741040713707e-04  1.7125719190899468e-04  1.0937714050936215e-04  6.8641350116129267e-05  4.2312257326186913e-05  2.5610166868164940e-05  1.5215614243520433e-05  8.8704994279309330e-06  5.0728390673175758e-06  2.8447716233526397e-06  1.5638314146426644e-06  8.4241772510273875e-07  4.4453320760688583e-07  2.2969843375820980e-07  1.1617678977505234e-07  5.7492274700587016e-08  2.7825227638214499e-08  1.3164499726353223e-08  6.0853860535876132e-09  2.7469657358202768e-09  1.2101540511083679e-09  5.1995363239538145e-10  2.1772430650568256e-10  8.8778883469738794e-11  3.5218101819338014e-11  1.3577106916588167e-11  5.0802697457204074e-12  1.8422824128891092e-12  6.4629762417244369e-13  2.1885153042193503e-13  7.1331855888022600e-14  2.2296380003251519e-14  6.6500530251960488e-15  1.8790469966647266e-15  4.9749497354487222e-16  1.2114344561112833e-16  2.6163566906783762e-17  4.5757395716703893e-18  4.2974867493761396e-19  -1.1199770494125839e-19  -8.6634191973131441e-20  -3.7168855269289076e-20  -2.1510951547870724e-20  3.1412176997861571e-02  3.0881100444495550e-02  3.2474096719224091e-02  3.1153249937822983e-02  2.6332281460313949e-02  2.0773037575109957e-02  1.6044305929178684e-02  1.2187257843049930e-02  9.1484712273008154e-03  6.7987907431887951e-03  5.0025252216779285e-03  3.6418130269546827e-03  2.6205840066420801e-03  1.8621433891043387e-03  1.3054572442685744e-03  9.0219894561009858e-04  6.1421443322830552e-04  4.1167831263404177e-04  2.7150129873102278e-04  1.7609644697075627e-04  1.1227999070865696e-04  7.0348587546688831e-05  4.3294466526336079e-05  2.6162458507658735e-05  1.5518109056882024e-05  9.0316316498814140e-06  5.1558830281167566e-06  2.8859945316538677e-06  1.5833892042183242e-06  8.5117673650822273e-07  4.4815329903340052e-07  2.3101298702184033e-07  1.1653837394602232e-07  5.7508751303776633e-08  2.7747814363952357e-08  1.3083870688596996e-08  6.0258942055932562e-09  2.7091223568390645e-09  1.1881634868952111e-09  5.0798627307961715e-10  2.1154653468126534e-10  8.5731682471649441e-11  3.3775614893865277e-11  1.2920002979258714e-11  4.7917557093318333e-12  1.7200792407403801e-12  5.9635125323878772e-13  1.9915696306366224e-13  6.3844444900428131e-14  1.9554924029171098e-14  5.6849177215286220e-15  1.5530907702756750e-15  3.9222278335483313e-16  8.8776297674476457e-17  1.6751343736965552e-17  2.0130234943915577e-18  -2.1262506831083133e-19  -2.5550208976526712e-19  -1.1300922947353664e-19  -3.9881100602380427e-20  -2.0504902852423258e-20  3.0975557112384821e-02  3.0784768484188374e-02  3.1155499676320329e-02  2.9554224792233283e-02  2.5547317518491298e-02  2.0647425960374510e-02  1.6120031099611642e-02  1.2318904103357174e-02  9.2755333987824384e-03  6.9009752585519318e-03  5.0776694380415396e-03  3.6942924563301031e-03  2.6560368580733251e-03  1.8854770367275561e-03  1.3204853589878151e-03  9.1166325140744136e-04  6.2004028420800856e-04  4.1516363428885958e-04  2.7352132639036649e-04  1.7722253063650397e-04  1.1287676853411744e-04  7.0642331676140538e-05  4.3423730978672727e-05  2.6207499541844974e-05  1.5523839927485724e-05  9.0217092057710047e-06  5.1420397727034591e-06  2.8732850525676680e-06  1.5734591247360280e-06  8.4410791197598715e-07  4.4343757311794075e-07  2.2802245624155393e-07  1.1472088855431673e-07  5.6444906853675284e-08  2.7146142222216711e-08  1.2754386698942887e-08  5.8509449551249071e-09  2.6189668020550255e-09  1.1430484131700544e-09  4.8605676005855251e-10  2.0119154310276675e-10  8.0982279976460726e-11  3.1660281912384240e-11  1.2005509734398324e-11  4.4082401725612497e-12  1.5641795003862681e-12  5.3498414472561377e-13  1.7579488765806452e-13  5.5256453683880139e-14  1.6512546005399102e-14  4.6489062519752090e-15  1.2151202245182912e-15  2.8708599282565769e-16  5.7792430691861488e-17  8.1871904617551034e-18  -1.7078552672727703e-19  -7.1053697889636845e-19  -3.4982065599159493e-19  -1.2424985251621901e-19  -3.8283377187394680e-20  -1.6479260417601586e-20  </DataArray> 
</PointData> 
</Piece>
</UnstructuredGrid>
</VTKFile>