<?xml version="1.0"?>
<VTKFile type="UnstructuredGrid"  version="0.1"  >
<UnstructuredGrid>
<Piece  NumberOfPoints="670" NumberOfCells="1192">
<Points>
<DataArray  type="Float64"  NumberOfComponents="3"  format="ascii">0 0 0  0.04 -1.31357e-10 0  0.0400579 0.0400582 0  0 0.04 0  0.08 -2.62713e-10 0  0.080123 0.0401093 0  0.12 -3.9407e-10 0  0.120183 0.040127 0  0.16 -5.25427e-10 0  0.160176 0.0400597 0  0.2 -6.56784e-10 0  0.199997 0.0399142 0  0.24 -7.8814e-10 0  0.239816 0.0400642 0  0.28 -9.19497e-10 0  0.279804 0.0401377 0  0.32 -1.05085e-09 0  0.319855 0.0401297 0  0.36 -1.18221e-09 0  0.359906 0.0400945 0  0.4 -1.31357e-09 0  0.399941 0.0400609 0  0.44 -1.44492e-09 0  0.439962 0.0400367 0  0.48 -1.57628e-09 0  0.479975 0.0400214 0  0.52 -1.70764e-09 0  0.519983 0.0400122 0  0.5600000000000001 -1.83899e-09 0  0.559987 0.0400069 0  0.6 -1.97035e-09 0  0.59999 0.040004 0  0.64 -2.10171e-09 0  0.639993 0.0400023 0  0.68 -2.23306e-09 0  0.679994 0.0400013 0  0.72 -2.36442e-09 0  0.7199950000000001 0.0400008 0  0.76 -2.49578e-09 0  0.759996 0.0400005 0  0.8 -2.62713e-09 0  0.799997 0.0400002 0  0.84 -2.75849e-09 0  0.839997 0.0400001 0  0.88 -2.88985e-09 0  0.8799979999999999 0.04 0  0.92 -3.0212e-09 0  0.919999 0.0399999 0  0.96 -3.15256e-09 0  0.959999 0.0399998 0  1 -3.28392e-09 0  1 0.0399998 0  1.04 -3.41527e-09 0  1.04 0.0399998 0  1.08 -3.54663e-09 0  1.08 0.0399998 0  1.12 -3.67799e-09 0  1.12 0.0399998 0  1.16 -3.80934e-09 0  1.16 0.0399999 0  1.2 -3.9407e-09 0  1.2 0.04 0  1.24 -4.07206e-09 0  1.24 0.04 0  1.28 -4.20341e-09 0  1.28 0.0400001 0  1.32 -4.33477e-09 0  1.32 0.0400001 0  1.36 -4.46613e-09 0  1.36 0.04 0  1.4 -4.59748e-09 0  1.4 0.04 0  1.44 -4.72884e-09 0  1.44 0.04 0  1.48 -4.8602e-09 0  1.48 0.04 0  1.52 -4.99156e-09 0  1.52 0.04 0  1.56 -5.12291e-09 0  1.56 0.04 0  1.6 -5.25427e-09 0  1.6 0.0400001 0  1.64 -5.38563e-09 0  1.64 0.0400001 0  1.68 -5.51698e-09 0  1.68 0.04 0  1.72 -5.64834e-09 0  1.72 0.04 0  1.76 -5.7797e-09 0  1.76 0.04 0  1.8 -5.91105e-09 0  1.8 0.04 0  1.84 -6.04241e-09 0  1.84 0.04 0  1.88 -6.17377e-09 0  1.88 0.0400001 0  1.92 -6.30512e-09 0  1.92 0.0400001 0  1.96 -6.43648e-09 0  1.96 0.0400001 0  2 -6.56784e-09 0  2 0.0400001 0  2.04 -6.69919e-09 0  2.04 0.0400001 0  2.08 -6.83055e-09 0  2.08 0.04 0  2.12 -6.96191e-09 0  2.12 0.04 0  2.16 -7.09326e-09 0  2.16 0.0400001 0  2.2 -7.22462e-09 0  2.2 0.04 0  2.24 -7.35598e-09 0  2.24 0.04 0  2.28 -7.48733e-09 0  2.28 0.0399999 0  2.32 -7.618690000000001e-09 0  2.32 0.04 0  2.36 -7.750049999999999e-09 0  2.36 0.04 0  2.4 -7.8814e-09 0  2.4 0.04 0  0.0401088 0.0801235 0  0 0.08 0  0.0802509 0.0802518 0  0.120434 0.0803392 0  0.160522 0.0801977 0  0.199995 0.0795328 0  0.239464 0.0802049 0  0.279544 0.08035689999999999 0  0.319711 0.0802867 0  0.359828 0.08018740000000001 0  0.399896 0.0801123 0  0.439933 0.0800646 0  0.479955 0.0800365 0  0.519968 0.08002049999999999 0  0.559976 0.0800116 0  0.599982 0.0800066 0  0.6399860000000001 0.0800039 0  0.679989 0.0800023 0  0.719991 0.0800014 0  0.759992 0.0800008 0  0.799994 0.0800004 0  0.839995 0.08000019999999999 0  0.879996 0.0799999 0  0.919997 0.07999970000000001 0  0.959999 0.0799996 0  1 0.0799995 0  1.04 0.0799995 0  1.08 0.0799996 0  1.12 0.07999970000000001 0  1.16 0.0799998 0  1.2 0.08 0  1.24 0.0800001 0  1.28 0.0800001 0  1.32 0.0800001 0  1.36 0.08 0  1.4 0.0799999 0  1.44 0.0799999 0  1.48 0.0799999 0  1.52 0.0799999 0  1.56 0.08 0  1.6 0.0800001 0  1.64 0.0800001 0  1.68 0.08 0  1.72 0.0799999 0  1.76 0.0799999 0  1.8 0.0799999 0  1.84 0.0799999 0  1.88 0.08 0  1.92 0.0800001 0  1.96 0.0800001 0  2 0.0800001 0  2.04 0.08 0  2.08 0.0799999 0  2.12 0.0799999 0  2.16 0.08 0  2.2 0.08 0  2.24 0.0799999 0  2.28 0.0799998 0  2.32 0.0799999 0  2.36 0.0799999 0  2.4 0.08 0  0.0401262 0.120184 0  0 0.12 0  0.0803378 0.120435 0  0.120779 0.12078 0  0.161485 0.120859 0  0.199996 0.117814 0  0.238503 0.120866 0  0.279195 0.120798 0  0.319616 0.120473 0  0.359799 0.120256 0  0.39988 0.120136 0  0.439921 0.120073 0  0.479944 0.120039 0  0.519958 0.120022 0  0.5599690000000001 0.120012 0  0.599976 0.120007 0  0.639981 0.120004 0  0.679985 0.120002 0  0.719987 0.120002 0  0.7599900000000001 0.120001 0  0.799991 0.12 0  0.839993 0.12 0  0.879995 0.12 0  0.919996 0.12 0  0.959998 0.119999 0  1 0.119999 0  1.04 0.119999 0  1.08 0.119999 0  1.12 0.12 0  1.16 0.12 0  1.2 0.12 0  1.24 0.12 0  1.28 0.12 0  1.32 0.12 0  1.36 0.12 0  1.4 0.12 0  1.44 0.12 0  1.48 0.12 0  1.52 0.12 0  1.56 0.12 0  1.6 0.12 0  1.64 0.12 0  1.68 0.12 0  1.72 0.12 0  1.76 0.12 0  1.8 0.12 0  1.84 0.12 0  1.88 0.12 0  1.92 0.12 0  1.96 0.12 0  2 0.12 0  2.04 0.12 0  2.08 0.12 0  2.12 0.12 0  2.16 0.12 0  2.2 0.12 0  2.24 0.12 0  2.28 0.12 0  2.32 0.12 0  2.36 0.12 0  2.4 0.12 0  0.0400582 0.160177 0  0 0.16 0  0.0801954 0.160525 0  0.120857 0.161488 0  0.164645 0.164645 0  0.2 0.15 0  0.235355 0.164645 0  0.279119 0.161498 0  0.319759 0.16055 0  0.359874 0.160228 0  0.399906 0.160104 0  0.439925 0.160051 0  0.479941 0.160027 0  0.519954 0.160014 0  0.559964 0.160008 0  0.5999719999999999 0.160005 0  0.639978 0.160003 0  0.679982 0.160002 0  0.719985 0.160001 0  0.759988 0.160001 0  0.79999 0.16 0  0.839992 0.16 0  0.8799940000000001 0.16 0  0.919996 0.159999 0  0.959998 0.159999 0  1 0.159999 0  1.04 0.159999 0  1.08 0.159999 0  1.12 0.16 0  1.16 0.16 0  1.2 0.16 0  1.24 0.16 0  1.28 0.16 0  1.32 0.16 0  1.36 0.16 0  1.4 0.16 0  1.44 0.16 0  1.48 0.16 0  1.52 0.16 0  1.56 0.16 0  1.6 0.16 0  1.64 0.16 0  1.68 0.16 0  1.72 0.16 0  1.76 0.16 0  1.8 0.16 0  1.84 0.16 0  1.88 0.16 0  1.92 0.16 0  1.96 0.16 0  2 0.16 0  2.04 0.16 0  2.08 0.16 0  2.12 0.16 0  2.16 0.16 0  2.2 0.16 0  2.24 0.16 0  2.28 0.16 0  2.32 0.16 0  2.36 0.16 0  2.4 0.16 0  0.0399111 0.2 0  0 0.2 0  0.0795281 0.2 0  0.117811 0.2 0  0.15 0.2 0  0.282167 0.2 0  0.25 0.2 0  0.320429 0.2 0  0.36003 0.200001 0  0.399944 0.200001 0  0.439934 0.200001 0  0.479942 0.200001 0  0.519953 0.200001 0  0.559963 0.200001 0  0.59997 0.200001 0  0.639976 0.200001 0  0.6799809999999999 0.200001 0  0.719984 0.200001 0  0.759987 0.200001 0  0.799989 0.2 0  0.839991 0.2 0  0.879993 0.2 0  0.919996 0.199999 0  0.959998 0.199999 0  1 0.199999 0  1.04 0.199999 0  1.08 0.199999 0  1.12 0.2 0  1.16 0.2 0  1.2 0.2 0  1.24 0.2 0  1.28 0.2 0  1.32 0.2 0  1.36 0.2 0  1.4 0.2 0  1.44 0.2 0  1.48 0.2 0  1.52 0.2 0  1.56 0.2 0  1.6 0.2 0  1.64 0.2 0  1.68 0.2 0  1.72 0.2 0  1.76 0.2 0  1.8 0.2 0  1.84 0.2 0  1.88 0.2 0  1.92 0.2 0  1.96 0.2 0  2 0.2 0  2.04 0.2 0  2.08 0.2 0  2.12 0.2 0  2.16 0.2 0  2.2 0.2 0  2.24 0.2 0  2.28 0.2 0  2.32 0.2 0  2.36 0.2 0  2.4 0.2 0  0.0400582 0.239823 0  0 0.24 0  0.0801953 0.239475 0  0.120857 0.238513 0  0.164645 0.235355 0  0.279119 0.238502 0  0.235355 0.235355 0  0.319759 0.239451 0  0.359873 0.239774 0  0.399905 0.239898 0  0.439925 0.239951 0  0.479941 0.239976 0  0.519954 0.239988 0  0.559964 0.239994 0  0.5999719999999999 0.239997 0  0.639977 0.239999 0  0.679982 0.24 0  0.719985 0.24 0  0.759987 0.24 0  0.79999 0.24 0  0.839992 0.24 0  0.8799940000000001 0.24 0  0.919996 0.239999 0  0.959998 0.239999 0  1 0.239999 0  1.04 0.239999 0  1.08 0.239999 0  1.12 0.24 0  1.16 0.24 0  1.2 0.24 0  1.24 0.24 0  1.28 0.24 0  1.32 0.24 0  1.36 0.24 0  1.4 0.24 0  1.44 0.24 0  1.48 0.24 0  1.52 0.24 0  1.56 0.24 0  1.6 0.24 0  1.64 0.24 0  1.68 0.24 0  1.72 0.24 0  1.76 0.24 0  1.8 0.24 0  1.84 0.24 0  1.88 0.24 0  1.92 0.24 0  1.96 0.24 0  2 0.24 0  2.04 0.24 0  2.08 0.24 0  2.12 0.24 0  2.16 0.24 0  2.2 0.24 0  2.24 0.24 0  2.28 0.24 0  2.32 0.24 0  2.36 0.24 0  2.4 0.24 0  0.0401261 0.279816 0  0 0.28 0  0.0803376 0.279565 0  0.120778 0.27922 0  0.161485 0.279141 0  0.2 0.25 0  0.199996 0.282186 0  0.238503 0.279135 0  0.279195 0.279202 0  0.319616 0.279528 0  0.359799 0.279745 0  0.39988 0.279865 0  0.43992 0.279929 0  0.479944 0.279962 0  0.519958 0.27998 0  0.559968 0.27999 0  0.599976 0.279995 0  0.639981 0.279998 0  0.679984 0.279999 0  0.719987 0.28 0  0.759989 0.28 0  0.799991 0.28 0  0.839993 0.28 0  0.879995 0.28 0  0.919997 0.279999 0  0.959998 0.279999 0  1 0.279999 0  1.04 0.279999 0  1.08 0.28 0  1.12 0.28 0  1.16 0.28 0  1.2 0.28 0  1.24 0.28 0  1.28 0.28 0  1.32 0.28 0  1.36 0.28 0  1.4 0.28 0  1.44 0.28 0  1.48 0.28 0  1.52 0.28 0  1.56 0.28 0  1.6 0.28 0  1.64 0.28 0  1.68 0.28 0  1.72 0.28 0  1.76 0.28 0  1.8 0.28 0  1.84 0.28 0  1.88 0.28 0  1.92 0.28 0  1.96 0.28 0  2 0.28 0  2.04 0.28 0  2.08 0.28 0  2.12 0.28 0  2.16 0.28 0  2.2 0.28 0  2.24 0.28 0  2.28 0.28 0  2.32 0.28 0  2.36 0.28 0  2.4 0.28 0  0.0401086 0.319877 0  0 0.32 0  0.08025060000000001 0.319748 0  0.120433 0.319661 0  0.160522 0.319802 0  0.199995 0.320467 0  0.239464 0.319795 0  0.279543 0.319643 0  0.31971 0.319714 0  0.359828 0.319813 0  0.399895 0.319889 0  0.439933 0.319937 0  0.479955 0.319965 0  0.519968 0.319981 0  0.559976 0.31999 0  0.599982 0.319995 0  0.6399860000000001 0.319998 0  0.679989 0.319999 0  0.719991 0.32 0  0.759992 0.32 0  0.799994 0.32 0  0.839995 0.32 0  0.879996 0.32 0  0.919998 0.32 0  0.959999 0.32 0  1 0.32 0  1.04 0.32 0  1.08 0.32 0  1.12 0.32 0  1.16 0.32 0  1.2 0.32 0  1.24 0.32 0  1.28 0.32 0  1.32 0.32 0  1.36 0.32 0  1.4 0.32 0  1.44 0.32 0  1.48 0.32 0  1.52 0.32 0  1.56 0.32 0  1.6 0.32 0  1.64 0.32 0  1.68 0.32 0  1.72 0.32 0  1.76 0.32 0  1.8 0.32 0  1.84 0.32 0  1.88 0.32 0  1.92 0.32 0  1.96 0.32 0  2 0.32 0  2.04 0.32 0  2.08 0.32 0  2.12 0.32 0  2.16 0.32 0  2.2 0.32 0  2.24 0.32 0  2.28 0.32 0  2.32 0.32 0  2.36 0.32 0  2.4 0.32 0  0.0400579 0.359942 0  0 0.36 0  0.0801229 0.359891 0  0.120183 0.359873 0  0.160175 0.35994 0  0.199997 0.360086 0  0.239816 0.359936 0  0.279804 0.359862 0  0.319855 0.359871 0  0.359906 0.359906 0  0.399941 0.35994 0  0.439962 0.359964 0  0.479975 0.359979 0  0.5199820000000001 0.359989 0  0.559987 0.359994 0  0.59999 0.359997 0  0.639993 0.359998 0  0.679994 0.359999 0  0.7199950000000001 0.36 0  0.759996 0.36 0  0.799997 0.36 0  0.839997 0.36 0  0.8799979999999999 0.36 0  0
[...]
<PointData  Scalars="f_10391-1"> 
<DataArray  type="Float64"  Name="f_10391-1"  format="ascii">5.9029757325459539e-05  7.4204684323933562e-05  1.3569135597342889e-04  1.2192054137465113e-04  8.4192521821181896e-05  1.4669313881723547e-04  8.3118044723323202e-05  1.4025040874214565e-04  6.7369575099017221e-05  1.0925130138603431e-04  4.4129119056248926e-05  6.8172907706668046e-05  2.3904376381926175e-05  3.5408098011407405e-05  1.1347731212491581e-05  1.6524842454229702e-05  4.8724838113332289e-06  7.1173893615357438e-06  1.9085215064067422e-06  2.8198750293005563e-06  6.7904578494673586e-07  1.0137948185030933e-06  2.1745493094911756e-07  3.2606829145095415e-07  6.2047183772966932e-08  9.2651545554374480e-08  1.5618691949539270e-08  2.2984668068223531e-08  3.4330679656735396e-09  4.9119082809956902e-09  6.5115587290670384e-10  8.8768233805283613e-10  1.0493033999359638e-10  1.3165102808742661e-10  1.4038954493482610e-11  1.5097256547684921e-11  1.5000142517588609e-12  1.1306088750274570e-12  1.1807393766824871e-13  7.5739497484213915e-15  5.3007732390321566e-15  -1.2277537599107155e-14  -1.0465714349752635e-16  -1.9567734616031699e-15  -3.7089677272290214e-17  -1.5868567787894774e-16  -2.3760829064170220e-18  -5.0892013115763980e-18  -1.8545774580119675e-22  2.9466255618610146e-19  7.4740757587157418e-21  3.1012290066135323e-20  1.0873659014246514e-22  -4.3046491997409726e-22  -2.7726343835774556e-23  -1.5262932434810295e-22  -2.6364865075638161e-25  -7.8042150960850711e-25  1.3299467650425271e-25  5.9298949955934961e-25  1.9200760893768635e-28  -1.5145332684000038e-27  -5.4369716141852784e-28  -2.3996639424325233e-27  9.6179570988571142e-30  5.7042360622693439e-29  1.6576101235319179e-30  7.8709945928907549e-30  -8.8495738497860503e-32  -4.8588609005614977e-31  -1.5726699982114686e-33  -9.6530672281647577e-33  3.6211782169489799e-34  2.2025605071260052e-33  -1.5863598027308320e-35  -8.5809515329232161e-35  -9.7926991396856814e-38  -2.4039905917373583e-36  5.7313043764253201e-38  4.9213069539325429e-37  -4.8713128033262038e-39  -3.0220819448077100e-38  2.6373907118604320e-40  5.7960663930090855e-40  -3.3080395129842344e-42  8.9741475311741433e-41  -1.3125776056295851e-42  -1.2221510362311817e-41  1.7280280016273714e-43  7.5450293316427462e-43  -1.0360214337140454e-44  -1.0743580889720110e-44  6.3675434398605525e-47  -2.8652693768113060e-45  4.8348297765553826e-47  3.5071541599723764e-46  -5.1561562150956617e-48  -2.1745157107693783e-47  2.9485542988228669e-49  5.0833423781586903e-49  -6.5042979874298382e-51  5.3512206536665305e-50  -6.8791785394586842e-52  -8.2511505396084395e-51  1.0638719669577234e-52  6.5084541926026633e-52  -8.7985452190525839e-54  -3.3170688134940670e-53  5.1339340368826571e-55  6.1895585557435276e-55  -1.8076508227393774e-56  9.2088232874207437e-56  -3.8248480256728672e-58  -1.4110398224739320e-56  1.4085266211692981e-58  1.2461449469980673e-57  -1.5665532940621959e-59  -8.1274674601602097e-59  1.2871977909503986e-60  3.5147420587968658e-60  -1.9129161899233994e-61  -1.1466798824478145e-61  3.6418300793030812e-04  3.3834092093512402e-04  3.8457452528032796e-04  3.6021491861683763e-04  2.6733035517604133e-04  1.5361570862932017e-04  7.5447133805194963e-05  3.5461760285792498e-05  1.5912404310830712e-05  6.5968225894590993e-06  2.4647690369859874e-06  8.1818969900834652e-07  2.3914026721418935e-07  6.1080763642449255e-08  1.3516009902530122e-08  2.5607294187515880e-09  4.0822222839568695e-10  5.3234172176912773e-11  5.3922311260671032e-12  3.7599289194943082e-13  1.0562174643015638e-14  -1.0113006375647885e-15  -1.1122273654742355e-16  2.0127634563455533e-18  1.0274685307770198e-18  4.4110145831071334e-20  -4.8213574608597797e-21  -4.8176539708677278e-22  9.0784960132724842e-24  2.3441818501797711e-24  -2.0743455267096535e-26  -8.0192970288178134e-27  3.4018295489175658e-28  2.4002265241064755e-29  -2.7658096048140664e-30  -3.5969393022542460e-33  1.3101495609571049e-32  -6.4814738634465425e-34  -2.1165018480833100e-35  4.1809485422048338e-36  -1.9273172892948164e-37  -4.8401370114364472e-39  1.2598362176214368e-39  -7.7673351493949736e-41  7.6349210836171851e-43  2.6834036895603687e-43  -2.7163718028541270e-44  1.4216001552722137e-45  -2.1891949291460225e-47  -4.4445777539243520e-48  6.0604493615304476e-49  -4.5581516720812582e-50  2.0303193801228744e-51  4.4299586406661250e-54  -1.1026002631832791e-53  1.2581905002046766e-54  -9.1055075048164868e-56  4.4249266410109208e-57  -7.3727660885230537e-59  -1.5003258684971731e-59  3.9403735720400646e-60  9.0841715110207466e-04  8.5146458910300067e-04  9.6383474978679027e-04  9.0563529608223025e-04  6.4274950626879443e-04  3.1541471630587646e-04  1.4823978070786111e-04  7.4103442533373341e-05  3.5425955464112255e-05  1.5221736691295598e-05  5.7713572759151374e-06  1.9203072435948672e-06  5.5854093304969878e-07  1.4117726778176147e-07  3.0697504064772162e-08  5.6473947705117417e-09  8.5294498231665280e-10  9.9263073086930348e-11  7.3424739323620849e-12  -4.4985752743219080e-14  -1.0994474676498364e-13  -1.8320377726011164e-14  -1.7455909714934074e-15  -9.7293380791019470e-17  -2.0473983025563175e-18  4.6434061797818021e-20  -5.6150129381490180e-21  -8.5558584738291913e-22  1.3815906275130670e-23  3.3950933503043152e-24  -2.5911787162709182e-25  -2.1713020591867543e-26  1.9462673742789298e-27  7.3936131003656799e-29  -1.3148703114440612e-29  1.5520177088410015e-31  6.9763421573395780e-32  -4.0911482938728115e-33  -1.6668906904143734e-34  2.9337862811050537e-35  -8.8326293831618310e-37  -8.3409649879318102e-38  9.4440275548776578e-39  -2.8624475373187202e-40  -1.9247596632031796e-41  2.6995008459378323e-42  -1.4314377378207001e-43  1.2272595846879249e-45  4.9448602778275956e-46  -5.3552345047580884e-47  3.2757267296348361e-48  -9.9764817805625177e-50  -5.2059453128384443e-51  1.1120510451221609e-51  -1.0055061931325918e-52  5.8327432048440785e-54  -1.6328382960677058e-55  -1.0409178778971171e-56  2.0369799538483350e-57  -1.8946904186092915e-58  2.4226997450363154e-59  2.0159233661881256e-03  1.8755604383223557e-03  2.1984833064180578e-03  2.1252292562429363e-03  1.5557425269447688e-03  4.7692935111940494e-04  2.3885978318248329e-04  1.4945758062407955e-04  7.5764986281686152e-05  3.2670723153352200e-05  1.2200073439744139e-05  3.9714711959863756e-06  1.1257872588224531e-06  2.7585516999351288e-07  5.7579060700208595e-08  9.9640522470688690e-09  1.3519304100026704e-09  1.2292201015250040e-10  1.7302003582897547e-12  -1.7922339388404672e-12  -3.6676462519180057e-13  -3.8168593765834873e-14  -1.4440926176821220e-15  2.0609731933111826e-16  3.9455866833802019e-17  2.9069076918047638e-18  5.6833579037837828e-20  -6.3926269950510270e-21  -3.6685903350647016e-22  4.6271517881474607e-24  -1.0551574181329999e-26  -3.4765099603465392e-26  6.9791231917956558e-27  2.5552704964522699e-28  -5.8800144768653788e-29  -4.6080616928544775e-32  3.4162748846828124e-31  -1.5326476794781350e-32  -1.1945288287362879e-33  1.4846144847912907e-34  -1.6686087568630635e-36  -6.4067502671740279e-37  4.7317523507673167e-38  -2.5137964307125788e-40  -1.9495743433135185e-40  1.6240650161172846e-41  -4.4942147800827707e-43  -3.5278746588667810e-44  5.2224060857714024e-45  -3.2331772744133495e-46  6.8936076928287143e-48  8.2065856277208855e-49  -1.1529940702337503e-49  8.1577408611467520e-51  -3.2890484271628829e-52  -2.9039977556224684e-54  1.9266728169532515e-54  -2.0436326861463949e-55  1.3824940613256695e-56  -5.5243970156344342e-58  6.1004299237905282e-60  3.9783251412158068e-03  3.6081006813982208e-03  4.5334056327569171e-03  4.4724689316782877e-03  4.1073679064828322e-03  3.1998379342057222e-04  4.8262327487620232e-04  1.5501008613764305e-04  6.3306937227299668e-05  2.2548573988940235e-05  7.0355043829522732e-06  1.9107535368157283e-06  4.4524966505348631e-07  8.6724395626457818e-08  1.3396341651931988e-08  1.4229658600538177e-09  3.6668405653563872e-11  -2.3350079331936406e-11  -5.8393883237252065e-12  -7.3710465505556071e-13  -3.9049781339658291e-14  3.9829551080154055e-15  1.0223932416056252e-15  8.0139806583513570e-17  -1.7986014981882252e-18  -9.7557422144020660e-19  -8.4668572745023431e-20  -1.6618832213688794e-21  1.9327256055171865e-22  6.4981380937589532e-24  -6.4932235083540511e-25  -4.7432869724350978e-27  2.7600808407476403e-27  -1.5512495571621555e-28  -9.9691860304201036e-30  1.5295899169034157e-30  -6.7868707590100980e-33  -8.0891048633941185e-33  4.5397194023505436e-34  1.3569008902089431e-35  -3.2077831895883107e-36  1.5779208496323945e-37  5.0311989473553743e-39  -1.2084164477850819e-39  7.0901132581697523e-41  2.7742383330518938e-43  -3.8114785739923968e-43  3.2159270019263009e-44  -1.0236334523635980e-45  -6.2477668985250638e-47  1.0826429674620601e-47  -7.4410028874838828e-49  2.2458411862363277e-50  1.1820809222484630e-51  -2.2453537825051755e-52  1.8067509871000024e-53  -8.9279283941077894e-55  1.4008729702521762e-56  2.7463057464024287e-57  -6.6790204615308460e-58  7.0553342356520733e-03  5.9766137144575673e-03  8.7298324625365558e-03  8.1380645096257795e-03  6.3000418936479648e-03  6.5347955042239397e-04  1.5729640986567284e-03  2.7103114129518668e-04  1.0245536788626753e-04  3.4566736887434549e-05  1.0265894826065878e-05  2.6374012679786538e-06  5.7003867514112845e-07  9.8218256812470551e-08  1.1671189057387410e-08  3.2125437422133751e-10  -2.5249901816234448e-10  -7.1897429867943066e-11  -1.0516970031310336e-11  -6.6845113103973880e-13  7.3688956210380354e-14  2.4075897441342664e-14  2.6106546188088811e-15  3.7329786915129061e-17  -2.6605241507424665e-17  -3.2927487361122936e-18  -6.5826036475279541e-20  2.1605053547594407e-20  2.0385626509823729e-21  6.7839518150364021e-25  -8.2582507116506613e-24  -6.9692875212441361e-26  3.5360238022209450e-26  -1.3822080196156232e-28  -1.4606985567685178e-28  5.2965587473316706e-30  4.4725755903459028e-31  -4.4112116991536657e-32  1.9603939618785562e-34  1.7993271084591889e-34  -1.2575995856755525e-35  1.1818792154886174e-37  5.5795395970885112e-38  -5.6121619934004985e-39  1.6674087323516213e-40  1.7509828142922298e-41  -2.4334127529500814e-42  1.1963008750089943e-43  2.0326692562831831e-45  -7.9125334773178369e-46  6.2933068271623125e-47  -2.0890012994906289e-48  -1.0160227655694019e-49  1.9994456841160313e-50  -1.5129744282539553e-51  5.9851445662960980e-53  7.1343973930739447e-55  -3.3406999485279597e-55  3.2275635760181339e-56  -3.8941934963985908e-57  9.8663019519924962e-03  7.9202917981326323e-03  1.4075162839983909e-02  1.3392084747270818e-02  8.1514792791572057e-03  4.1265857410430753e-03  4.4968938376910772e-03  2.1491189087667773e-03  9.2226533234646656e-04  3.6669907265093340e-04  1.3277418446183879e-04  4.2890298003141252e-05  1.2087379393978786e-05  2.8804977475078782e-06  5.4797389156580682e-07  7.1115640498031898e-08  1.4828218779529316e-09  -2.2213530294898898e-09  -6.9355753435458303e-10  -1.1524992628009826e-10  -8.5375693487832750e-12  1.0489012791121907e-12  4.1752434220756827e-13  5.7633907380010164e-14  2.2314597010733674e-15  -5.9974780775731749e-16  -1.1756349510525731e-16  -7.3524687712359409e-18  4.4233271360464753e-19  1.0565752375807057e-19  4.1405785665769966e-21  -5.2833701447198869e-22  -5.4441059905304919e-23  8.1493418256495048e-25  2.7640402922016262e-25  -2.0198731206391275e-27  -1.2458383884413582e-27  2.3595435606615145e-29  4.7285332252184474e-30  -2.2902127309801531e-31  -9.2312149282094126e-33  1.3754659229689993e-33  -4.2942171090024313e-35  -3.3924594176850284e-36  4.4476233765976951e-37  -1.7342690625315196e-38  -8.0523414723187790e-40  1.5778661207169051e-40  -9.5812992171985716e-42  1.4581772489903477e-44  4.8428854481413825e-44  -4.4770175724117407e-45  1.7366567281993953e-46  5.8024741020424000e-48  -1.4178943738817408e-48  1.1023114799202053e-49  -4.1535020628326010e-51  -9.5283071159699508e-53  2.8480830868567285e-53  -2.4948418792358343e-54  1.3223023837787604e-55  -6.9331495328642485e-57  9.7220159845936328e-03  8.0228179730452726e-03  1.4069092717856876e-02  1.4084200136254801e-02  8.7496086276017473e-03  4.5595221636149678e-03  2.2234077399779866e-03  9.8168197913190932e-04  3.9207828161656576e-04  1.3977526225779881e-04  4.3582296501586498e-05  1.1517478157928676e-05  2.4304811365516629e-06  3.4677924600728793e-07  4.9104310703572208e-09  -1.5167616462225678e-08  -5.2726141822832907e-09  -1.0089054821225747e-09  -9.2460794196640506e-11  9.6110608114714422e-12  5.1780366669045830e-12  9.0348290427915966e-13  5.9578117201304557e-14  -8.5752930270359214e-15  -2.6523470448833298e-15  -2.7026392019709780e-16  1.4630637432584894e-18  3.6686944366321139e-18  3.8327716603077479e-19  1.0780874008546569e-21  -2.9334259913442136e-21  -1.7115492190559049e-22  1.1608888400163256e-23  1.3676253986457683e-24  -3.6532705030082706e-26  -7.2466206666253826e-27  1.7776459528049790e-28  2.9545418508444472e-29  -1.4663070065646327e-30  -8.1346768878384634e-32  9.7097619122399898e-33  -1.0371687725780482e-34  -3.8869724849361954e-35  2.7928490202806154e-36  5.9699403645333918e-39  -1.3386725689281452e-38  9.0923937504475495e-40  -6.8212894306070995e-42  -3.5180000925310587e-42  3.2238007567269819e-43  -1.2106784285971319e-44  -4.0772270701907855e-46  9.5240653811652261e-47  -7.1282035584537746e-48  2.4836420991645397e-49  8.0244861105130800e-51  -1.9340199551585567e-51  1.6357818011930892e-52  -8.5224363557131977e-54  1.4945565446717118e-55  4.0045076978761039e-56  7.7766246793979496e-03  6.9630989190525927e-03  9.7259794281919811e-03  9.8776910838782889e-03  7.0747546927101574e-03  4.0016585412972153e-03  2.0374038250263920e-03  9.2357808790808011e-04  3.7070480437483184e-04  1.2986602731877191e-04  3.8647543273550378e-05  9.2516177536819488e-06  1.5330226653639562e-06  4.9761641010608453e-08  -7.4485225173253949e-08  -3.1110218511316364e-08  -7.1278346300870607e-09  -8.7068174347484703e-10  4.0078311684003429e-11  4.4903897415230737e-11  1.0255907606274275e-11  1.0442231285105428e-12  -5.9524391497030579e-14  -3.8539644772654989e-14  -5.8313258059373048e-15  -2.1986961728419813e-16  6.8802993836567359e-17  1.2920918765761436e-17  6.7577766160150274e-19  -7.5053895862826053e-20  -1.3558068937457066e-20  -4.3019284512652506e-22  6.6087017766434137e-23  5.0712121370952299e-24  -2.4583288446731387e-25  -2.8793460713327138e-26  1.3793875538981765e-27  1.3857672834619250e-28  -9.4657510069818502e-30  -4.5920081266177861e-31  6.2123100189281666e-32  -1.9387231422571049e-35  -2.9630106475454938e-34  1.4132781874695256e-35  6.1131711660322162e-37  -9.9878985813809084e-38  3.4349388818152402e-39  2.1645559239703176e-40  -2.9877039411241273e-41  1.2659063864102952e-42  2.8196213461981651e-44  -7.5541667330003946e-45  5.1817889397861180e-46  -1.4392754852178724e-47  -7.9373946541510206e-49  1.3395970417600129e-49  -1.0053357313523970e-50  4.7632113639194600e-52  -7.0506929568771077e-54  -1.5126593513724583e-54  3.9488040009429526e-55  6.9642233935198264e-03  6.5780741069191217e-03  8.0276405138322449e-03  7.9315949132144591e-03  5.9947559456388624e-03  3.6294814495465115e-03  1.8948938298870453e-03  8.6482047822603698e-04  3.4385063672102598e-04  1.1692024430732179e-04  3.2619186798905595e-05  6.7205852011652134e-06  6.1765773054539034e-07  -2.2363603373698086e-07  -1.3729057851214350e-07  -4.0027970583716123e-08  -6.7745559677127230e-09  -2.1102759983135036e-10  2.5501768199925182e-10  8.3518657359362756e-11  1.2618362936348464e-11  2.0627234945470090e-13  -3.5448203986601836e-13  -8.1514020177964742e-14  -6.8926633362013591e-15  6.2725854591021959e-16  2.4334664178732527e-16  2.5065098252546450e-17  -4.5933507589478206e-19  -3.9882932381821124e-19  -3.6803959682062318e-20  6.4759602221091968e-22  3.5940932546903793e-22  1.6934546544088910e-23  -1.3493508894594812e-24  -1.0576523997541869e-25  7.4549628277455499e-27  5.3780542446621187e-28  -5.2039494848359939e-29  -2.2202171123890935e-30  3.3020787442498141e-31  2.1119646834252394e-33  -1.7093370750900999e-33  5.9223216093484751e-35  5.3391561614038828e-36  -5.4004390142877641e-37  6.4700108577946502e-39  1.9796395973116839e-39  -1.5919282628163423e-40  2.4008115757541490e-42  5.1011577641318538e-43  -4.7888785287925970e-44  1.6556033077730176e-45  5.1455454346053089e-47  -1.0622965264888388e-47  7.5801221376265408e-49  -3.1191380121394868e-50  1.2261809324875178e-52  1.1855288225787031e-52  -1.4060960010731977e-53  1.8395783740278513e-54  </DataArray> 
</PointData> 
</Piece>
</UnstructuredGrid>
</VTKFile>