<?xml version="1.0"?>
<VTKFile type="UnstructuredGrid"  version="0.1"  >
<UnstructuredGrid>
<Piece  NumberOfPoints="670" NumberOfCells="1192">
<Points>
<DataArray  type="Float64"  NumberOfComponents="3"  format="ascii">0 0 0  0.04 -1.31357e-10 0  0.0400579 0.0400582 0  0 0.04 0  0.08 -2.62713e-10 0  0.080123 0.0401093 0  0.12 -3.9407e-10 0  0.120183 0.040127 0  0.16 -5.25427e-10 0  0.160176 0.0400597 0  0.2 -6.56784e-10 0  0.199997 0.0399142 0  0.24 -7.8814e-10 0  0.239816 0.0400642 0  0.28 -9.19497e-10 0  0.279804 0.0401377 0  0.32 -1.05085e-09 0  0.319855 0.0401297 0  0.36 -1.18221e-09 0  0.359906 0.0400945 0  0.4 -1.31357e-09 0  0.399941 0.0400609 0  0.44 -1.44492e-09 0  0.439962 0.0400367 0  0.48 -1.57628e-09 0  0.479975 0.0400214 0  0.52 -1.70764e-09 0  0.519983 0.0400122 0  0.5600000000000001 -1.83899e-09 0  0.559987 0.0400069 0  0.6 -1.97035e-09 0  0.59999 0.040004 0  0.64 -2.10171e-09 0  0.639993 0.0400023 0  0.68 -2.23306e-09 0  0.679994 0.0400013 0  0.72 -2.36442e-09 0  0.7199950000000001 0.0400008 0  0.76 -2.49578e-09 0  0.759996 0.0400005 0  0.8 -2.62713e-09 0  0.799997 0.0400002 0  0.84 -2.75849e-09 0  0.839997 0.0400001 0  0.88 -2.88985e-09 0  0.8799979999999999 0.04 0  0.92 -3.0212e-09 0  0.919999 0.0399999 0  0.96 -3.15256e-09 0  0.959999 0.0399998 0  1 -3.28392e-09 0  1 0.0399998 0  1.04 -3.41527e-09 0  1.04 0.0399998 0  1.08 -3.54663e-09 0  1.08 0.0399998 0  1.12 -3.67799e-09 0  1.12 0.0399998 0  1.16 -3.80934e-09 0  1.16 0.0399999 0  1.2 -3.9407e-09 0  1.2 0.04 0  1.24 -4.07206e-09 0  1.24 0.04 0  1.28 -4.20341e-09 0  1.28 0.0400001 0  1.32 -4.33477e-09 0  1.32 0.0400001 0  1.36 -4.46613e-09 0  1.36 0.04 0  1.4 -4.59748e-09 0  1.4 0.04 0  1.44 -4.72884e-09 0  1.44 0.04 0  1.48 -4.8602e-09 0  1.48 0.04 0  1.52 -4.99156e-09 0  1.52 0.04 0  1.56 -5.12291e-09 0  1.56 0.04 0  1.6 -5.25427e-09 0  1.6 0.0400001 0  1.64 -5.38563e-09 0  1.64 0.0400001 0  1.68 -5.51698e-09 0  1.68 0.04 0  1.72 -5.64834e-09 0  1.72 0.04 0  1.76 -5.7797e-09 0  1.76 0.04 0  1.8 -5.91105e-09 0  1.8 0.04 0  1.84 -6.04241e-09 0  1.84 0.04 0  1.88 -6.17377e-09 0  1.88 0.0400001 0  1.92 -6.30512e-09 0  1.92 0.0400001 0  1.96 -6.43648e-09 0  1.96 0.0400001 0  2 -6.56784e-09 0  2 0.0400001 0  2.04 -6.69919e-09 0  2.04 0.0400001 0  2.08 -6.83055e-09 0  2.08 0.04 0  2.12 -6.96191e-09 0  2.12 0.04 0  2.16 -7.09326e-09 0  2.16 0.0400001 0  2.2 -7.22462e-09 0  2.2 0.04 0  2.24 -7.35598e-09 0  2.24 0.04 0  2.28 -7.48733e-09 0  2.28 0.0399999 0  2.32 -7.618690000000001e-09 0  2.32 0.04 0  2.36 -7.750049999999999e-09 0  2.36 0.04 0  2.4 -7.8814e-09 0  2.4 0.04 0  0.0401088 0.0801235 0  0 0.08 0  0.0802509 0.0802518 0  0.120434 0.0803392 0  0.160522 0.0801977 0  0.199995 0.0795328 0  0.239464 0.0802049 0  0.279544 0.08035689999999999 0  0.319711 0.0802867 0  0.359828 0.08018740000000001 0  0.399896 0.0801123 0  0.439933 0.0800646 0  0.479955 0.0800365 0  0.519968 0.08002049999999999 0  0.559976 0.0800116 0  0.599982 0.0800066 0  0.6399860000000001 0.0800039 0  0.679989 0.0800023 0  0.719991 0.0800014 0  0.759992 0.0800008 0  0.799994 0.0800004 0  0.839995 0.08000019999999999 0  0.879996 0.0799999 0  0.919997 0.07999970000000001 0  0.959999 0.0799996 0  1 0.0799995 0  1.04 0.0799995 0  1.08 0.0799996 0  1.12 0.07999970000000001 0  1.16 0.0799998 0  1.2 0.08 0  1.24 0.0800001 0  1.28 0.0800001 0  1.32 0.0800001 0  1.36 0.08 0  1.4 0.0799999 0  1.44 0.0799999 0  1.48 0.0799999 0  1.52 0.0799999 0  1.56 0.08 0  1.6 0.0800001 0  1.64 0.0800001 0  1.68 0.08 0  1.72 0.0799999 0  1.76 0.0799999 0  1.8 0.0799999 0  1.84 0.0799999 0  1.88 0.08 0  1.92 0.0800001 0  1.96 0.0800001 0  2 0.0800001 0  2.04 0.08 0  2.08 0.0799999 0  2.12 0.0799999 0  2.16 0.08 0  2.2 0.08 0  2.24 0.0799999 0  2.28 0.0799998 0  2.32 0.0799999 0  2.36 0.0799999 0  2.4 0.08 0  0.0401262 0.120184 0  0 0.12 0  0.0803378 0.120435 0  0.120779 0.12078 0  0.161485 0.120859 0  0.199996 0.117814 0  0.238503 0.120866 0  0.279195 0.120798 0  0.319616 0.120473 0  0.359799 0.120256 0  0.39988 0.120136 0  0.439921 0.120073 0  0.479944 0.120039 0  0.519958 0.120022 0  0.5599690000000001 0.120012 0  0.599976 0.120007 0  0.639981 0.120004 0  0.679985 0.120002 0  0.719987 0.120002 0  0.7599900000000001 0.120001 0  0.799991 0.12 0  0.839993 0.12 0  0.879995 0.12 0  0.919996 0.12 0  0.959998 0.119999 0  1 0.119999 0  1.04 0.119999 0  1.08 0.119999 0  1.12 0.12 0  1.16 0.12 0  1.2 0.12 0  1.24 0.12 0  1.28 0.12 0  1.32 0.12 0  1.36 0.12 0  1.4 0.12 0  1.44 0.12 0  1.48 0.12 0  1.52 0.12 0  1.56 0.12 0  1.6 0.12 0  1.64 0.12 0  1.68 0.12 0  1.72 0.12 0  1.76 0.12 0  1.8 0.12 0  1.84 0.12 0  1.88 0.12 0  1.92 0.12 0  1.96 0.12 0  2 0.12 0  2.04 0.12 0  2.08 0.12 0  2.12 0.12 0  2.16 0.12 0  2.2 0.12 0  2.24 0.12 0  2.28 0.12 0  2.32 0.12 0  2.36 0.12 0  2.4 0.12 0  0.0400582 0.160177 0  0 0.16 0  0.0801954 0.160525 0  0.120857 0.161488 0  0.164645 0.164645 0  0.2 0.15 0  0.235355 0.164645 0  0.279119 0.161498 0  0.319759 0.16055 0  0.359874 0.160228 0  0.399906 0.160104 0  0.439925 0.160051 0  0.479941 0.160027 0  0.519954 0.160014 0  0.559964 0.160008 0  0.5999719999999999 0.160005 0  0.639978 0.160003 0  0.679982 0.160002 0  0.719985 0.160001 0  0.759988 0.160001 0  0.79999 0.16 0  0.839992 0.16 0  0.8799940000000001 0.16 0  0.919996 0.159999 0  0.959998 0.159999 0  1 0.159999 0  1.04 0.159999 0  1.08 0.159999 0  1.12 0.16 0  1.16 0.16 0  1.2 0.16 0  1.24 0.16 0  1.28 0.16 0  1.32 0.16 0  1.36 0.16 0  1.4 0.16 0  1.44 0.16 0  1.48 0.16 0  1.52 0.16 0  1.56 0.16 0  1.6 0.16 0  1.64 0.16 0  1.68 0.16 0  1.72 0.16 0  1.76 0.16 0  1.8 0.16 0  1.84 0.16 0  1.88 0.16 0  1.92 0.16 0  1.96 0.16 0  2 0.16 0  2.04 0.16 0  2.08 0.16 0  2.12 0.16 0  2.16 0.16 0  2.2 0.16 0  2.24 0.16 0  2.28 0.16 0  2.32 0.16 0  2.36 0.16 0  2.4 0.16 0  0.0399111 0.2 0  0 0.2 0  0.0795281 0.2 0  0.117811 0.2 0  0.15 0.2 0  0.282167 0.2 0  0.25 0.2 0  0.320429 0.2 0  0.36003 0.200001 0  0.399944 0.200001 0  0.439934 0.200001 0  0.479942 0.200001 0  0.519953 0.200001 0  0.559963 0.200001 0  0.59997 0.200001 0  0.639976 0.200001 0  0.6799809999999999 0.200001 0  0.719984 0.200001 0  0.759987 0.200001 0  0.799989 0.2 0  0.839991 0.2 0  0.879993 0.2 0  0.919996 0.199999 0  0.959998 0.199999 0  1 0.199999 0  1.04 0.199999 0  1.08 0.199999 0  1.12 0.2 0  1.16 0.2 0  1.2 0.2 0  1.24 0.2 0  1.28 0.2 0  1.32 0.2 0  1.36 0.2 0  1.4 0.2 0  1.44 0.2 0  1.48 0.2 0  1.52 0.2 0  1.56 0.2 0  1.6 0.2 0  1.64 0.2 0  1.68 0.2 0  1.72 0.2 0  1.76 0.2 0  1.8 0.2 0  1.84 0.2 0  1.88 0.2 0  1.92 0.2 0  1.96 0.2 0  2 0.2 0  2.04 0.2 0  2.08 0.2 0  2.12 0.2 0  2.16 0.2 0  2.2 0.2 0  2.24 0.2 0  2.28 0.2 0  2.32 0.2 0  2.36 0.2 0  2.4 0.2 0  0.0400582 0.239823 0  0 0.24 0  0.0801953 0.239475 0  0.120857 0.238513 0  0.164645 0.235355 0  0.279119 0.238502 0  0.235355 0.235355 0  0.319759 0.239451 0  0.359873 0.239774 0  0.399905 0.239898 0  0.439925 0.239951 0  0.479941 0.239976 0  0.519954 0.239988 0  0.559964 0.239994 0  0.5999719999999999 0.239997 0  0.639977 0.239999 0  0.679982 0.24 0  0.719985 0.24 0  0.759987 0.24 0  0.79999 0.24 0  0.839992 0.24 0  0.8799940000000001 0.24 0  0.919996 0.239999 0  0.959998 0.239999 0  1 0.239999 0  1.04 0.239999 0  1.08 0.239999 0  1.12 0.24 0  1.16 0.24 0  1.2 0.24 0  1.24 0.24 0  1.28 0.24 0  1.32 0.24 0  1.36 0.24 0  1.4 0.24 0  1.44 0.24 0  1.48 0.24 0  1.52 0.24 0  1.56 0.24 0  1.6 0.24 0  1.64 0.24 0  1.68 0.24 0  1.72 0.24 0  1.76 0.24 0  1.8 0.24 0  1.84 0.24 0  1.88 0.24 0  1.92 0.24 0  1.96 0.24 0  2 0.24 0  2.04 0.24 0  2.08 0.24 0  2.12 0.24 0  2.16 0.24 0  2.2 0.24 0  2.24 0.24 0  2.28 0.24 0  2.32 0.24 0  2.36 0.24 0  2.4 0.24 0  0.0401261 0.279816 0  0 0.28 0  0.0803376 0.279565 0  0.120778 0.27922 0  0.161485 0.279141 0  0.2 0.25 0  0.199996 0.282186 0  0.238503 0.279135 0  0.279195 0.279202 0  0.319616 0.279528 0  0.359799 0.279745 0  0.39988 0.279865 0  0.43992 0.279929 0  0.479944 0.279962 0  0.519958 0.27998 0  0.559968 0.27999 0  0.599976 0.279995 0  0.639981 0.279998 0  0.679984 0.279999 0  0.719987 0.28 0  0.759989 0.28 0  0.799991 0.28 0  0.839993 0.28 0  0.879995 0.28 0  0.919997 0.279999 0  0.959998 0.279999 0  1 0.279999 0  1.04 0.279999 0  1.08 0.28 0  1.12 0.28 0  1.16 0.28 0  1.2 0.28 0  1.24 0.28 0  1.28 0.28 0  1.32 0.28 0  1.36 0.28 0  1.4 0.28 0  1.44 0.28 0  1.48 0.28 0  1.52 0.28 0  1.56 0.28 0  1.6 0.28 0  1.64 0.28 0  1.68 0.28 0  1.72 0.28 0  1.76 0.28 0  1.8 0.28 0  1.84 0.28 0  1.88 0.28 0  1.92 0.28 0  1.96 0.28 0  2 0.28 0  2.04 0.28 0  2.08 0.28 0  2.12 0.28 0  2.16 0.28 0  2.2 0.28 0  2.24 0.28 0  2.28 0.28 0  2.32 0.28 0  2.36 0.28 0  2.4 0.28 0  0.0401086 0.319877 0  0 0.32 0  0.08025060000000001 0.319748 0  0.120433 0.319661 0  0.160522 0.319802 0  0.199995 0.320467 0  0.239464 0.319795 0  0.279543 0.319643 0  0.31971 0.319714 0  0.359828 0.319813 0  0.399895 0.319889 0  0.439933 0.319937 0  0.479955 0.319965 0  0.519968 0.319981 0  0.559976 0.31999 0  0.599982 0.319995 0  0.6399860000000001 0.319998 0  0.679989 0.319999 0  0.719991 0.32 0  0.759992 0.32 0  0.799994 0.32 0  0.839995 0.32 0  0.879996 0.32 0  0.919998 0.32 0  0.959999 0.32 0  1 0.32 0  1.04 0.32 0  1.08 0.32 0  1.12 0.32 0  1.16 0.32 0  1.2 0.32 0  1.24 0.32 0  1.28 0.32 0  1.32 0.32 0  1.36 0.32 0  1.4 0.32 0  1.44 0.32 0  1.48 0.32 0  1.52 0.32 0  1.56 0.32 0  1.6 0.32 0  1.64 0.32 0  1.68 0.32 0  1.72 0.32 0  1.76 0.32 0  1.8 0.32 0  1.84 0.32 0  1.88 0.32 0  1.92 0.32 0  1.96 0.32 0  2 0.32 0  2.04 0.32 0  2.08 0.32 0  2.12 0.32 0  2.16 0.32 0  2.2 0.32 0  2.24 0.32 0  2.28 0.32 0  2.32 0.32 0  2.36 0.32 0  2.4 0.32 0  0.0400579 0.359942 0  0 0.36 0  0.0801229 0.359891 0  0.120183 0.359873 0  0.160175 0.35994 0  0.199997 0.360086 0  0.239816 0.359936 0  0.279804 0.359862 0  0.319855 0.359871 0  0.359906 0.359906 0  0.399941 0.35994 0  0.439962 0.359964 0  0.479975 0.359979 0  0.5199820000000001 0.359989 0  0.559987 0.359994 0  0.59999 0.359997 0  0.639993 0.359998 0  0.679994 0.359999 0  0.7199950000000001 0.36 0  0.759996 0.36 0  0.799997 0.36 0  0.839997 0.36 0  0.8799979999999999 0.36 0  0
[...]
<PointData  Scalars="f_10391-1"> 
<DataArray  type="Float64"  Name="f_10391-1"  format="ascii">1.8840437998005088e-04  2.0821977756911383e-04  3.1308068748260934e-04  3.0053992143083734e-04  2.1323447396784571e-04  3.1489461144632133e-04  1.9778157075241935e-04  2.8826653593429967e-04  1.5887533709803598e-04  2.2571681002237114e-04  1.0868408808168199e-04  1.4885903269207257e-04  6.4466374775871282e-05  8.5517926636495469e-05  3.4607561330807475e-05  4.5312030874557382e-05  1.7196802297451035e-05  2.2538965210448249e-05  7.9481886003721419e-06  1.0479893836057067e-05  3.4031009084280417e-06  4.5073655154061207e-06  1.3406523537562490e-06  1.7756248160416173e-06  4.8269507029195665e-07  6.3563493181850644e-07  1.5789039546509131e-07  2.0541552204666371e-07  4.6665018389423749e-08  5.9546436289487707e-08  1.2393158538216161e-08  1.5368442530843913e-08  2.9390609611737897e-09  3.4969024914188628e-09  6.1753078567135697e-10  6.9148126271090569e-10  1.1373963728969679e-10  1.1601672102183152e-10  1.8079160625429788e-11  1.5769279836424958e-11  2.4178817032255403e-12  1.5413277164131806e-12  2.5931817901795213e-13  5.5551536796888040e-14  1.9786974311212502e-14  -1.5632825405447086e-14  5.6964905358738941e-16  -4.1720949509836585e-15  -1.0706778348793816e-16  -5.7718641090445888e-16  -2.0496968118825839e-17  -4.9412263444095540e-17  -1.8309888753663038e-18  -1.7798689014536612e-18  -7.6726388455445433e-20  1.6615138582733503e-19  1.8377808629442450e-21  2.9755412587057961e-20  3.8659628734860037e-22  1.7327926692836288e-21  6.6358581375768088e-24  -1.7227402719287276e-23  -1.6252450296455083e-24  -7.9529010258848913e-24  -8.4460003407293683e-26  -1.9567359363023234e-25  4.7139313976493706e-27  2.9631628653243562e-26  3.9925061565574112e-28  1.3733823068512634e-27  -1.5242850693997467e-29  -1.0843139127447549e-28  -1.3163589114202748e-30  -5.4959433796684076e-30  7.4377319171753773e-32  4.7246460569538554e-31  2.8278798610187272e-33  1.3366717334032609e-32  -3.6200797493153565e-34  -2.1565526643540170e-33  4.9496243455460870e-36  2.3538731686659502e-35  1.1333398714841912e-36  7.9118098296571095e-36  -9.4031129314914692e-38  -5.0615101557405771e-37  1.1816287655050610e-39  -7.6621654776080081e-39  4.2670533280099080e-40  2.9641879810231302e-39  -3.8996979136965484e-41  -1.5308960161540257e-40  3.8012300513860650e-43  -4.9743366545685020e-42  1.8891081699416348e-43  1.1179012805586286e-42  -1.5285539801987020e-44  -5.4703265930560894e-44  1.6394518575111452e-46  -1.5467062279009421e-45  6.0883860757760870e-47  3.8985847858974421e-46  -5.5712003806877289e-48  -2.3291250596921993e-47  1.7688694120394456e-49  2.1050237207729373e-50  1.0731055666377013e-50  1.1119092694991918e-49  -1.8141761534503134e-51  -1.0002481390190434e-50  1.2062615696860321e-52  3.7536372689889162e-52  -2.9254941149890521e-54  1.4019123488788780e-53  -3.1466489445579986e-55  -3.2574114782089699e-54  4.7694143318028632e-56  2.5506944130826774e-55  -3.3560641829223688e-57  -8.7659593993837446e-57  2.5771659946166020e-58  -6.2599606710382997e-58  6.7215017441170930e-04  6.5148334727044321e-04  6.7444337362110188e-04  6.1377273230957892e-04  4.6236949452180617e-04  2.8317663475426467e-04  1.5462941349577941e-04  8.2030594004143344e-05  4.1922708617432781e-05  2.0072504177254139e-05  8.8340010809526784e-06  3.5377584436249074e-06  1.2818355345524545e-06  4.1846996711189586e-07  1.2255817531408779e-07  3.2025049901389417e-08  7.4116477020444263e-09  1.5032809472321165e-09  2.6303984004176462e-10  3.8703907797505824e-11  4.5670253644633592e-12  3.8659543162325665e-13  1.4362195415541270e-14  -1.6631706446435254e-15  -3.0579550561886476e-16  -8.8844965933873263e-18  3.7306180460668658e-18  6.6510105983982158e-19  4.5101304916176128e-20  -1.0970877811945393e-21  -4.7740136603174985e-22  -3.5104104761890887e-23  -6.8174205962924334e-26  1.2378108442383708e-25  1.4369086187331824e-27  -6.1221293849677380e-28  -9.9903022077340010e-30  2.9597996632329360e-30  2.0655662313987816e-32  -1.3961701742836110e-32  2.2930399708984410e-34  5.7001261254362121e-35  -3.1087622827290384e-36  -1.3865330367365759e-37  2.0509504508241417e-38  -3.7017393397772524e-40  -7.0040731259241154e-41  5.7406766542080801e-42  -7.2052545850528228e-44  -2.0629557336116817e-44  1.9601381181355308e-45  -6.0422283825439249e-47  -4.8661447549026185e-48  7.4046914843524228e-49  -4.0592290133085702e-50  -1.5422758223853296e-52  2.2169902618267035e-52  -1.9952254155340083e-53  7.9088792998018471e-55  2.7602265678173085e-56  -1.2338575151740295e-56  1.4377712529502326e-03  1.3902535986495272e-03  1.4639669310980055e-03  1.3468537519615545e-03  9.7518673271952065e-04  5.1692502831110932e-04  2.7129177036637253e-04  1.5116136641371645e-04  8.1084268754448748e-05  3.9835827299151941e-05  1.7688863013239458e-05  7.0794163183470561e-06  2.5505566324765467e-06  8.2542921151348910e-07  2.3898097060111462e-07  6.1515100617186174e-08  1.3940197852454876e-08  2.7383946340634654e-09  4.5408160706239847e-10  6.0214922353795038e-11  5.4936700028594616e-12  9.2779263620568094e-14  -8.2548227854062994e-14  -1.9083986640878385e-14  -2.5221405544731615e-15  -2.1426216225693064e-16  -9.6528545657461272e-18  5.2316154751820360e-20  8.4040942291766154e-21  -5.7793750880156754e-21  -8.1893863044250693e-22  -1.6322287016482662e-23  5.6976087887219078e-24  4.8729876073127682e-25  -8.4177688847870922e-27  -2.5288553587759161e-27  2.7449854846383550e-29  1.4232103939283549e-29  -1.9409699004113756e-31  -7.7086898988739106e-32  1.9095965553023602e-33  3.5582067165383102e-34  -1.7527872786614262e-35  -1.1755674877285786e-36  1.1948448459025886e-37  3.7030974482055649e-40  -5.3332759435522245e-40  2.6492047137476215e-41  7.4152442143072272e-43  -1.6391040317270316e-43  8.2766822559417778e-45  1.2870339432683694e-46  -5.0527701635749729e-47  3.6527425609486708e-48  -5.8943346447060069e-50  -1.3703028182709381e-50  1.5340133174296563e-51  -7.0084828676237156e-53  -1.2381009547438704e-54  4.8349561246433503e-55  -7.7303711256609498e-56  2.8475799008294434e-03  2.7204879882212415e-03  2.9930001305728295e-03  2.8478258685608144e-03  2.1200363178839397e-03  7.3292623850349816e-04  4.0598102059336873e-04  2.7361455893679392e-04  1.5381550922685650e-04  7.5621068204457124e-05  3.3093382817398911e-05  1.2991875931158459e-05  4.5835261071454154e-06  1.4499939222567368e-06  4.0906539392110102e-07  1.0195808718285135e-07  2.2116152378761426e-08  4.0678375736907662e-09  6.0200848496109340e-10  6.2054377390029315e-11  1.4546458819566541e-12  -1.0786349843378796e-12  -2.8203590581677232e-13  -4.0002873889528600e-14  -3.0352627953017308e-15  7.7578974339052713e-17  5.7742518668013210e-17  8.4090674222589417e-18  6.3579667337925450e-19  1.4397878961032993e-20  -1.8108672592670312e-21  -1.2367808375948786e-22  6.2403321807786488e-24  5.4944919226139630e-25  -8.4144016678809347e-26  -9.2971562232415560e-27  2.5941365625909884e-28  6.0642133707952387e-29  -1.1185818602373354e-30  -3.4299249572028091e-31  9.3517654548821771e-33  1.7804384552671447e-33  -7.9008663415974733e-35  -6.8670331213156566e-36  5.8547583241635658e-37  9.8344992499007186e-39  -3.1552770794792634e-39  1.1241495025834151e-40  8.6241495142685686e-42  -1.0488497441710841e-42  2.6075646522516253e-44  3.2292475387142781e-45  -3.5467665264330615e-46  1.1121968263888181e-47  8.2396951388980931e-49  -1.2058652516672649e-49  6.2473366060378410e-51  4.2444145395197472e-53  -3.4522228524992920e-53  2.9077731851931401e-54  -2.0966454361397931e-55  5.1563611218749250e-03  4.8029889232835020e-03  5.6696304301105394e-03  5.5452964387570245e-03  5.1259371132160864e-03  5.2585965133674782e-04  7.4423410485861537e-04  2.8401104025648340e-04  1.3316787438495223e-04  5.5976866042875733e-05  2.1235017369306096e-05  7.2585034259464010e-06  2.2227597204717196e-06  6.0397110639132315e-07  1.4342738231782366e-07  2.9005715005740574e-08  4.7452432077331637e-09  5.4645659574779487e-10  1.6325764365430540e-11  -1.1019389808565485e-11  -3.2755098570388708e-12  -5.2175135579284826e-13  -4.4053493148604205e-14  1.4459540416467201e-15  1.0939432888163118e-15  1.6964249192296351e-16  1.0860887021281856e-17  -7.7690130445626443e-19  -2.5931813196002925e-19  -2.7378927104511606e-20  -1.0965259475309506e-21  6.0511669494471647e-23  8.2324681894284390e-24  1.8799440148982747e-26  -3.3347449401223557e-26  4.4612996315722019e-28  2.5081648797893924e-28  -1.1602792004911303e-30  -1.5324082721143221e-30  9.9760242062909263e-33  7.6367584858243702e-33  -2.2704742170029090e-34  -3.2363641199408939e-35  2.3921972990260324e-36  7.4261100352737567e-38  -1.6093052094528297e-38  3.8959964879107764e-40  6.3869503353425991e-41  -5.5531986288883357e-42  1.5028307542708519e-45  2.7769350374874052e-44  -1.8098338870370727e-45  -1.1819204494054987e-47  9.4678930551441819e-48  -6.4731483826591429e-49  5.8509813541712986e-51  2.5504117132941513e-51  -2.3922129618042196e-52  8.0478301909584257e-54  6.6752289977579474e-55  8.5664838888743124e-03  7.5089442296081095e-03  1.0185603756144579e-02  9.5048088383805299e-03  7.5730506638669627e-03  9.9572055889117083e-04  2.1522495751254947e-03  4.6723732669273082e-04  2.0462640471141883e-04  8.2255260069987970e-05  3.0091032746198101e-05  9.9309321196967661e-06  2.9236319038801096e-06  7.5540541727905200e-07  1.6679848955783735e-07  2.9872728741159108e-08  3.7644686019363606e-09  1.1553489405884132e-10  -9.6260530339578251e-11  -3.1586534880937814e-11  -5.6423800354276465e-12  -5.4719630670646871e-13  1.5448759956335967e-14  1.6236723072652195e-14  2.9744892225485213e-15  2.4207470738998092e-16  -1.1288518071412282e-17  -5.8442457102052503e-18  -7.1440878181756908e-19  -2.0548273261129591e-20  6.0879462090897878e-21  9.6124864516367746e-22  5.1463910016666534e-23  -1.7642303581811393e-24  -3.6428857178717980e-25  -6.0039129109955645e-27  1.4907272972656153e-27  4.1160017077989975e-29  -7.1880894697535802e-30  -1.6158584834899336e-31  3.5688310562526989e-32  -6.2947854313935362e-35  -1.6632084388781943e-34  7.4969605088097284e-36  5.6922991169259601e-37  -7.1936792613901801e-38  2.6847956166135631e-40  3.9268184802552283e-40  -2.2315943430938992e-41  -8.5212899358175467e-43  1.6589560953042879e-43  -5.9105526498886452e-45  -4.4179237834928132e-46  5.9168258588043812e-47  -2.0607345065824258e-48  -1.3174450912121615e-49  1.9666542809725761e-50  -9.2693603346915206e-52  -1.7902654726673463e-53  1.0563509602297177e-53  1.1648215086436103e-02  9.7271242039995588e-03  1.5783078850081376e-02  1.4967744947969796e-02  9.5286388621175343e-03  5.1603641698872525e-03  5.5891380874195026e-03  2.8918107493204055e-03  1.3781975224811235e-03  6.2353887917887118e-04  2.6399601103623411e-04  1.0302468746082365e-04  3.6571864961416266e-05  1.1646501138147220e-05  3.2689450089885412e-06  7.8649191417615713e-07  1.5369399675035542e-07  2.1051548806640590e-08  6.0714533609265112e-10  -7.0110536977959723e-10  -2.5180033173497072e-10  -5.0431502540321551e-11  -5.6784342223456655e-12  9.3963368851516426e-14  1.9075361290513234e-13  4.2064716779174598e-14  4.4484082560632713e-15  -4.8450041186117836e-17  -1.0076636029175204e-16  -1.6692946191607732e-17  -9.8961149867716913e-19  1.0663164929722899e-19  2.7737799689772517e-20  2.0731677262588603e-21  -7.7306801414781032e-23  -2.8662569074490541e-23  -2.0374575394582102e-24  3.1141613741260366e-26  1.2369449533491857e-26  3.0916599985126665e-28  -4.6748466455640370e-29  -1.6378176105523294e-30  2.0304353351854210e-31  3.4220894892928927e-33  -1.0618781925133714e-33  1.6615517764480614e-35  4.8370860021531858e-36  -2.8207124751359087e-37  -1.2354463792072872e-38  2.0994271413609627e-39  -4.4785274683029430e-41  -8.5074680908674547e-42  7.2430651978605435e-43  -1.3516834095845189e-45  -3.5564548397469522e-45  2.4709639665337780e-46  2.1702119649126486e-49  -1.2124015803021002e-48  8.9541155193391692e-50  -1.2453514728810156e-51  -3.2572161951524150e-52  6.2437694846494303e-53  1.1688767821085213e-02  1.0016627367795268e-02  1.5947775811270905e-02  1.5800471043219001e-02  1.0222523751430087e-02  5.7186108283854417e-03  3.0407469773136553e-03  1.4987389911549529e-03  6.8623611353599322e-04  2.8966805691127195e-04  1.1151077884829832e-04  3.8630354744991338e-05  1.1832064374732929e-05  3.1169349349223236e-06  6.6956711744849278e-07  1.0145634184531050e-07  3.4651161427669286e-09  -4.0466003941271994e-09  -1.6391345822851402e-09  -3.7369124456711492e-10  -5.0193273639203733e-11  -4.4636927989168551e-13  1.6886641700616251e-12  4.6110093007505119e-13  6.2470470074126055e-14  1.5440009565477568e-15  -1.2622127245609770e-15  -2.8923806408021194e-16  -2.7290448837845509e-17  7.9928618630792761e-19  5.9240254213915021e-19  7.3408128572150510e-20  1.5418234928776858e-21  -7.1064871217918200e-22  -9.1405076159727106e-23  -1.5873536488461454e-24  6.7533582404023825e-25  6.3516084699802803e-26  -1.8102303929845246e-28  -3.1542089306424465e-28  -5.3691499424978062e-30  1.4548728620557040e-30  2.3331784472492014e-32  -7.2924516637805398e-33  9.9608428384652903e-36  3.6063666291990536e-35  -1.0350537698277613e-36  -1.4104900446752263e-37  1.0158109410641288e-38  2.2175629700869154e-40  -5.7584297998623024e-41  2.0840370439809354e-42  1.4783428903981950e-43  -1.9175101224931158e-44  5.6389439130187902e-46  5.1428933483535956e-47  -6.3429217677717760e-48  2.3949992054837450e-49  1.0517705019338699e-50  -1.9931661561824958e-51  2.3566479824773729e-52  9.8432578922468764e-03  9.0567947097405666e-03  1.1697722550096332e-02  1.1672200105127466e-02  8.6058694149323059e-03  5.2036650133462257e-03  2.8920379309324584e-03  1.4695458587976990e-03  6.8257531092207285e-04  2.8825544345535394e-04  1.0958920552609072e-04  3.6936627969595276e-05  1.0763783938682980e-05  2.5853092089624230e-06  4.5205580515872181e-07  2.7544758621516376e-08  -1.7127864025995841e-08  -8.5236267670406023e-09  -2.2810175420132942e-09  -3.7654835528423577e-10  -1.8304457773553658e-11  1.0632478935998336e-11  3.8611345380352371e-12  6.7264506990875619e-13  4.2912778955455992e-14  -1.0534500254786593e-14  -3.6023500204327129e-15  -4.8643335258701765e-16  -1.0469860281693459e-17  8.5011747595206701e-18  1.6356223711518951e-18  1.0628967776686581e-19  -1.0291611612267472e-20  -2.7931110015759624e-21  -1.9771419215171862e-22  9.6794633190772202e-24  2.7039594522831768e-24  1.1940827780563912e-25  -1.3040801713571236e-26  -1.4761785704164520e-27  2.2551872256517871e-29  8.8826654431936489e-30  7.8010936823187680e-33  -4.7074816003730753e-32  -1.0381451685639937e-35  2.2953715435104259e-34  -3.7540145100791924e-36  -1.0000648213332757e-36  4.6034268953075118e-38  2.9794067040250642e-39  -3.2340601760801035e-40  1.4177536459715273e-42  1.3393361474808543e-42  -7.9456550855479333e-44  -1.0151241981655901e-45  4.0307096215703380e-46  -2.3463313325990067e-47  5.2607953036389936e-51  1.0210624253921292e-49  -8.5203227036360696e-51  5.2391010508555737e-52  9.0595366083151326e-03  8.6938028863955703e-03  1.0027887777775491e-02  9.7520153065124293e-03  7.5475185175699648e-03  4.8483377227738758e-03  2.7624152960542031e-03  1.4195690575982925e-03  6.6022713954242828e-04  2.7656588845570152e-04  1.0314430047173063e-04  3.3555409436933020e-05  9.1652741067835250e-06  1.9216553206382735e-06  2.1477368476666009e-07  -4.3636283831499536e-08  -3.4114965856489504e-08  -1.1285664950070260e-08  -2.3457753164835795e-09  -2.3172309485244185e-10  4.0765016210992226e-11  2.4159519701965702e-11  5.5416874611865112e-12  6.0157727913409561e-13  -4.5563916745088300e-14  -3.2004100186864446e-14  -6.0769618488971272e-15  -4.1297727500004586e-16  7.4994910673723688e-17  2.4188329575474831e-17  2.6618808175921810e-18  -3.7328309383243733e-20  -5.2601558110217432e-20  -6.7010296200309583e-21  -1.0625684047735833e-22  7.0709526429552137e-23  8.1534979915131323e-24  2.6588797621524081e-26  -6.4922066198362786e-26  -3.5792944197691204e-27  3.4090132055316956e-28  4.0040957549815987e-29  -7.9004583471820099e-31  -2.3815387029371081e-31  2.0352547756921953e-33  1.2214119925681653e-33  -1.8312953503200418e-35  -5.5154293110291858e-36  2.0561068446745238e-37  1.9261809731148253e-38  -1.6034863480359509e-39  -2.3562437450101788e-41  8.0780382229254486e-42  -2.8742391663152413e-43  -1.8375097125956784e-44  2.2404514604470578e-45  -6.8495500411979521e-47  -4.3582178464955944e-48  6.1362141462568529e-49  -3.1199053118164373e-50  1.4567811641553317e-52  </DataArray> 
</PointData> 
</Piece>
</UnstructuredGrid>
</VTKFile>