<?xml version="1.0"?>
<VTKFile type="UnstructuredGrid"  version="0.1"  >
<UnstructuredGrid>
<Piece  NumberOfPoints="670" NumberOfCells="1192">
<Points>
<DataArray  type="Float64"  NumberOfComponents="3"  format="ascii">0 0 0  0.04 -1.31357e-10 0  0.0400579 0.0400582 0  0 0.04 0  0.08 -2.62713e-10 0  0.080123 0.0401093 0  0.12 -3.9407e-10 0  0.120183 0.040127 0  0.16 -5.25427e-10 0  0.160176 0.0400597 0  0.2 -6.56784e-10 0  0.199997 0.0399142 0  0.24 -7.8814e-10 0  0.239816 0.0400642 0  0.28 -9.19497e-10 0  0.279804 0.0401377 0  0.32 -1.05085e-09 0  0.319855 0.0401297 0  0.36 -1.18221e-09 0  0.359906 0.0400945 0  0.4 -1.31357e-09 0  0.399941 0.0400609 0  0.44 -1.44492e-09 0  0.439962 0.0400367 0  0.48 -1.57628e-09 0  0.479975 0.0400214 0  0.52 -1.70764e-09 0  0.519983 0.0400122 0  0.5600000000000001 -1.83899e-09 0  0.559987 0.0400069 0  0.6 -1.97035e-09 0  0.59999 0.040004 0  0.64 -2.10171e-09 0  0.639993 0.0400023 0  0.68 -2.23306e-09 0  0.679994 0.0400013 0  0.72 -2.36442e-09 0  0.7199950000000001 0.0400008 0  0.76 -2.49578e-09 0  0.759996 0.0400005 0  0.8 -2.62713e-09 0  0.799997 0.0400002 0  0.84 -2.75849e-09 0  0.839997 0.0400001 0  0.88 -2.88985e-09 0  0.8799979999999999 0.04 0  0.92 -3.0212e-09 0  0.919999 0.0399999 0  0.96 -3.15256e-09 0  0.959999 0.0399998 0  1 -3.28392e-09 0  1 0.0399998 0  1.04 -3.41527e-09 0  1.04 0.0399998 0  1.08 -3.54663e-09 0  1.08 0.0399998 0  1.12 -3.67799e-09 0  1.12 0.0399998 0  1.16 -3.80934e-09 0  1.16 0.0399999 0  1.2 -3.9407e-09 0  1.2 0.04 0  1.24 -4.07206e-09 0  1.24 0.04 0  1.28 -4.20341e-09 0  1.28 0.0400001 0  1.32 -4.33477e-09 0  1.32 0.0400001 0  1.36 -4.46613e-09 0  1.36 0.04 0  1.4 -4.59748e-09 0  1.4 0.04 0  1.44 -4.72884e-09 0  1.44 0.04 0  1.48 -4.8602e-09 0  1.48 0.04 0  1.52 -4.99156e-09 0  1.52 0.04 0  1.56 -5.12291e-09 0  1.56 0.04 0  1.6 -5.25427e-09 0  1.6 0.0400001 0  1.64 -5.38563e-09 0  1.64 0.0400001 0  1.68 -5.51698e-09 0  1.68 0.04 0  1.72 -5.64834e-09 0  1.72 0.04 0  1.76 -5.7797e-09 0  1.76 0.04 0  1.8 -5.91105e-09 0  1.8 0.04 0  1.84 -6.04241e-09 0  1.84 0.04 0  1.88 -6.17377e-09 0  1.88 0.0400001 0  1.92 -6.30512e-09 0  1.92 0.0400001 0  1.96 -6.43648e-09 0  1.96 0.0400001 0  2 -6.56784e-09 0  2 0.0400001 0  2.04 -6.69919e-09 0  2.04 0.0400001 0  2.08 -6.83055e-09 0  2.08 0.04 0  2.12 -6.96191e-09 0  2.12 0.04 0  2.16 -7.09326e-09 0  2.16 0.0400001 0  2.2 -7.22462e-09 0  2.2 0.04 0  2.24 -7.35598e-09 0  2.24 0.04 0  2.28 -7.48733e-09 0  2.28 0.0399999 0  2.32 -7.618690000000001e-09 0  2.32 0.04 0  2.36 -7.750049999999999e-09 0  2.36 0.04 0  2.4 -7.8814e-09 0  2.4 0.04 0  0.0401088 0.0801235 0  0 0.08 0  0.0802509 0.0802518 0  0.120434 0.0803392 0  0.160522 0.0801977 0  0.199995 0.0795328 0  0.239464 0.0802049 0  0.279544 0.08035689999999999 0  0.319711 0.0802867 0  0.359828 0.08018740000000001 0  0.399896 0.0801123 0  0.439933 0.0800646 0  0.479955 0.0800365 0  0.519968 0.08002049999999999 0  0.559976 0.0800116 0  0.599982 0.0800066 0  0.6399860000000001 0.0800039 0  0.679989 0.0800023 0  0.719991 0.0800014 0  0.759992 0.0800008 0  0.799994 0.0800004 0  0.839995 0.08000019999999999 0  0.879996 0.0799999 0  0.919997 0.07999970000000001 0  0.959999 0.0799996 0  1 0.0799995 0  1.04 0.0799995 0  1.08 0.0799996 0  1.12 0.07999970000000001 0  1.16 0.0799998 0  1.2 0.08 0  1.24 0.0800001 0  1.28 0.0800001 0  1.32 0.0800001 0  1.36 0.08 0  1.4 0.0799999 0  1.44 0.0799999 0  1.48 0.0799999 0  1.52 0.0799999 0  1.56 0.08 0  1.6 0.0800001 0  1.64 0.0800001 0  1.68 0.08 0  1.72 0.0799999 0  1.76 0.0799999 0  1.8 0.0799999 0  1.84 0.0799999 0  1.88 0.08 0  1.92 0.0800001 0  1.96 0.0800001 0  2 0.0800001 0  2.04 0.08 0  2.08 0.0799999 0  2.12 0.0799999 0  2.16 0.08 0  2.2 0.08 0  2.24 0.0799999 0  2.28 0.0799998 0  2.32 0.0799999 0  2.36 0.0799999 0  2.4 0.08 0  0.0401262 0.120184 0  0 0.12 0  0.0803378 0.120435 0  0.120779 0.12078 0  0.161485 0.120859 0  0.199996 0.117814 0  0.238503 0.120866 0  0.279195 0.120798 0  0.319616 0.120473 0  0.359799 0.120256 0  0.39988 0.120136 0  0.439921 0.120073 0  0.479944 0.120039 0  0.519958 0.120022 0  0.5599690000000001 0.120012 0  0.599976 0.120007 0  0.639981 0.120004 0  0.679985 0.120002 0  0.719987 0.120002 0  0.7599900000000001 0.120001 0  0.799991 0.12 0  0.839993 0.12 0  0.879995 0.12 0  0.919996 0.12 0  0.959998 0.119999 0  1 0.119999 0  1.04 0.119999 0  1.08 0.119999 0  1.12 0.12 0  1.16 0.12 0  1.2 0.12 0  1.24 0.12 0  1.28 0.12 0  1.32 0.12 0  1.36 0.12 0  1.4 0.12 0  1.44 0.12 0  1.48 0.12 0  1.52 0.12 0  1.56 0.12 0  1.6 0.12 0  1.64 0.12 0  1.68 0.12 0  1.72 0.12 0  1.76 0.12 0  1.8 0.12 0  1.84 0.12 0  1.88 0.12 0  1.92 0.12 0  1.96 0.12 0  2 0.12 0  2.04 0.12 0  2.08 0.12 0  2.12 0.12 0  2.16 0.12 0  2.2 0.12 0  2.24 0.12 0  2.28 0.12 0  2.32 0.12 0  2.36 0.12 0  2.4 0.12 0  0.0400582 0.160177 0  0 0.16 0  0.0801954 0.160525 0  0.120857 0.161488 0  0.164645 0.164645 0  0.2 0.15 0  0.235355 0.164645 0  0.279119 0.161498 0  0.319759 0.16055 0  0.359874 0.160228 0  0.399906 0.160104 0  0.439925 0.160051 0  0.479941 0.160027 0  0.519954 0.160014 0  0.559964 0.160008 0  0.5999719999999999 0.160005 0  0.639978 0.160003 0  0.679982 0.160002 0  0.719985 0.160001 0  0.759988 0.160001 0  0.79999 0.16 0  0.839992 0.16 0  0.8799940000000001 0.16 0  0.919996 0.159999 0  0.959998 0.159999 0  1 0.159999 0  1.04 0.159999 0  1.08 0.159999 0  1.12 0.16 0  1.16 0.16 0  1.2 0.16 0  1.24 0.16 0  1.28 0.16 0  1.32 0.16 0  1.36 0.16 0  1.4 0.16 0  1.44 0.16 0  1.48 0.16 0  1.52 0.16 0  1.56 0.16 0  1.6 0.16 0  1.64 0.16 0  1.68 0.16 0  1.72 0.16 0  1.76 0.16 0  1.8 0.16 0  1.84 0.16 0  1.88 0.16 0  1.92 0.16 0  1.96 0.16 0  2 0.16 0  2.04 0.16 0  2.08 0.16 0  2.12 0.16 0  2.16 0.16 0  2.2 0.16 0  2.24 0.16 0  2.28 0.16 0  2.32 0.16 0  2.36 0.16 0  2.4 0.16 0  0.0399111 0.2 0  0 0.2 0  0.0795281 0.2 0  0.117811 0.2 0  0.15 0.2 0  0.282167 0.2 0  0.25 0.2 0  0.320429 0.2 0  0.36003 0.200001 0  0.399944 0.200001 0  0.439934 0.200001 0  0.479942 0.200001 0  0.519953 0.200001 0  0.559963 0.200001 0  0.59997 0.200001 0  0.639976 0.200001 0  0.6799809999999999 0.200001 0  0.719984 0.200001 0  0.759987 0.200001 0  0.799989 0.2 0  0.839991 0.2 0  0.879993 0.2 0  0.919996 0.199999 0  0.959998 0.199999 0  1 0.199999 0  1.04 0.199999 0  1.08 0.199999 0  1.12 0.2 0  1.16 0.2 0  1.2 0.2 0  1.24 0.2 0  1.28 0.2 0  1.32 0.2 0  1.36 0.2 0  1.4 0.2 0  1.44 0.2 0  1.48 0.2 0  1.52 0.2 0  1.56 0.2 0  1.6 0.2 0  1.64 0.2 0  1.68 0.2 0  1.72 0.2 0  1.76 0.2 0  1.8 0.2 0  1.84 0.2 0  1.88 0.2 0  1.92 0.2 0  1.96 0.2 0  2 0.2 0  2.04 0.2 0  2.08 0.2 0  2.12 0.2 0  2.16 0.2 0  2.2 0.2 0  2.24 0.2 0  2.28 0.2 0  2.32 0.2 0  2.36 0.2 0  2.4 0.2 0  0.0400582 0.239823 0  0 0.24 0  0.0801953 0.239475 0  0.120857 0.238513 0  0.164645 0.235355 0  0.279119 0.238502 0  0.235355 0.235355 0  0.319759 0.239451 0  0.359873 0.239774 0  0.399905 0.239898 0  0.439925 0.239951 0  0.479941 0.239976 0  0.519954 0.239988 0  0.559964 0.239994 0  0.5999719999999999 0.239997 0  0.639977 0.239999 0  0.679982 0.24 0  0.719985 0.24 0  0.759987 0.24 0  0.79999 0.24 0  0.839992 0.24 0  0.8799940000000001 0.24 0  0.919996 0.239999 0  0.959998 0.239999 0  1 0.239999 0  1.04 0.239999 0  1.08 0.239999 0  1.12 0.24 0  1.16 0.24 0  1.2 0.24 0  1.24 0.24 0  1.28 0.24 0  1.32 0.24 0  1.36 0.24 0  1.4 0.24 0  1.44 0.24 0  1.48 0.24 0  1.52 0.24 0  1.56 0.24 0  1.6 0.24 0  1.64 0.24 0  1.68 0.24 0  1.72 0.24 0  1.76 0.24 0  1.8 0.24 0  1.84 0.24 0  1.88 0.24 0  1.92 0.24 0  1.96 0.24 0  2 0.24 0  2.04 0.24 0  2.08 0.24 0  2.12 0.24 0  2.16 0.24 0  2.2 0.24 0  2.24 0.24 0  2.28 0.24 0  2.32 0.24 0  2.36 0.24 0  2.4 0.24 0  0.0401261 0.279816 0  0 0.28 0  0.0803376 0.279565 0  0.120778 0.27922 0  0.161485 0.279141 0  0.2 0.25 0  0.199996 0.282186 0  0.238503 0.279135 0  0.279195 0.279202 0  0.319616 0.279528 0  0.359799 0.279745 0  0.39988 0.279865 0  0.43992 0.279929 0  0.479944 0.279962 0  0.519958 0.27998 0  0.559968 0.27999 0  0.599976 0.279995 0  0.639981 0.279998 0  0.679984 0.279999 0  0.719987 0.28 0  0.759989 0.28 0  0.799991 0.28 0  0.839993 0.28 0  0.879995 0.28 0  0.919997 0.279999 0  0.959998 0.279999 0  1 0.279999 0  1.04 0.279999 0  1.08 0.28 0  1.12 0.28 0  1.16 0.28 0  1.2 0.28 0  1.24 0.28 0  1.28 0.28 0  1.32 0.28 0  1.36 0.28 0  1.4 0.28 0  1.44 0.28 0  1.48 0.28 0  1.52 0.28 0  1.56 0.28 0  1.6 0.28 0  1.64 0.28 0  1.68 0.28 0  1.72 0.28 0  1.76 0.28 0  1.8 0.28 0  1.84 0.28 0  1.88 0.28 0  1.92 0.28 0  1.96 0.28 0  2 0.28 0  2.04 0.28 0  2.08 0.28 0  2.12 0.28 0  2.16 0.28 0  2.2 0.28 0  2.24 0.28 0  2.28 0.28 0  2.32 0.28 0  2.36 0.28 0  2.4 0.28 0  0.0401086 0.319877 0  0 0.32 0  0.08025060000000001 0.319748 0  0.120433 0.319661 0  0.160522 0.319802 0  0.199995 0.320467 0  0.239464 0.319795 0  0.279543 0.319643 0  0.31971 0.319714 0  0.359828 0.319813 0  0.399895 0.319889 0  0.439933 0.319937 0  0.479955 0.319965 0  0.519968 0.319981 0  0.559976 0.31999 0  0.599982 0.319995 0  0.6399860000000001 0.319998 0  0.679989 0.319999 0  0.719991 0.32 0  0.759992 0.32 0  0.799994 0.32 0  0.839995 0.32 0  0.879996 0.32 0  0.919998 0.32 0  0.959999 0.32 0  1 0.32 0  1.04 0.32 0  1.08 0.32 0  1.12 0.32 0  1.16 0.32 0  1.2 0.32 0  1.24 0.32 0  1.28 0.32 0  1.32 0.32 0  1.36 0.32 0  1.4 0.32 0  1.44 0.32 0  1.48 0.32 0  1.52 0.32 0  1.56 0.32 0  1.6 0.32 0  1.64 0.32 0  1.68 0.32 0  1.72 0.32 0  1.76 0.32 0  1.8 0.32 0  1.84 0.32 0  1.88 0.32 0  1.92 0.32 0  1.96 0.32 0  2 0.32 0  2.04 0.32 0  2.08 0.32 0  2.12 0.32 0  2.16 0.32 0  2.2 0.32 0  2.24 0.32 0  2.28 0.32 0  2.32 0.32 0  2.36 0.32 0  2.4 0.32 0  0.0400579 0.359942 0  0 0.36 0  0.0801229 0.359891 0  0.120183 0.359873 0  0.160175 0.35994 0  0.199997 0.360086 0  0.239816 0.359936 0  0.279804 0.359862 0  0.319855 0.359871 0  0.359906 0.359906 0  0.399941 0.35994 0  0.439962 0.359964 0  0.479975 0.359979 0  0.5199820000000001 0.359989 0  0.559987 0.359994 0  0.59999 0.359997 0  0.639993 0.359998 0  0.679994 0.359999 0  0.7199950000000001 0.36 0  0.759996 0.36 0  0.799997 0.36 0  0.839997 0.36 0  0.8799979999999999 0.36 0  0
[...]
<PointData  Scalars="f_10391-1"> 
<DataArray  type="Float64"  Name="f_10391-1"  format="ascii">9.8530140386782587e-03  9.8048590164829443e-03  1.0273830463776158e-02  1.0370383692191280e-02  9.5223831247741499e-03  9.9542823127483724e-03  9.0529665285418084e-03  9.4327073579301944e-03  8.4286211636152106e-03  8.7309389228501493e-03  7.7072635298387603e-03  7.9292722052228815e-03  6.9639415110266528e-03  7.1328338861281039e-03  6.2406318572436059e-03  6.3792991139057977e-03  5.5405610673224699e-03  5.6565147332894089e-03  4.8618072023532757e-03  4.9566065600698313e-03  4.2090533643434520e-03  4.2840831864120171e-03  3.5919337639431252e-03  3.6495901083156319e-03  3.0208217326015531e-03  3.0640620221657989e-03  2.5039394359781817e-03  2.5357390377000696e-03  2.0461622037473703e-03  2.0691796182845251e-03  1.6489533067468316e-03  1.6653692324698763e-03  1.3108695142754285e-03  1.3224083900564814e-03  1.0282792778232661e-03  1.0362847298114181e-03  7.9609691125454647e-04  8.0156821573739681e-04  6.0843180172841683e-04  6.1211003268906263e-04  4.5911717388088505e-04  4.6154432527967785e-04  3.4210816961221819e-04  3.4367818259012161e-04  2.5175853114317072e-04  2.5274681281654571e-04  1.8299069274509041e-04  1.8359304716471491e-04  1.3138106081116209e-04  1.3173419708987062e-04  9.3180156771741855e-05  9.3374778541875991e-05  6.5286249030551251e-05  6.5384496403345508e-05  4.5190029154995441e-05  4.5231702356169136e-05  3.0902639216847683e-05  3.0913000605199207e-05  2.0877809577068934e-05  2.0872368680515133e-05  1.3935112027573427e-05  1.3922991147079381e-05  9.1889890068752880e-06  9.1752406393742221e-06  5.9861637933613381e-06  5.9733326595430379e-06  3.8524892700388401e-06  3.8416441325890100e-06  2.4492410876263701e-06  2.4406337290908204e-06  1.5381597050060192e-06  1.5316312374271331e-06  9.5418163259379527e-07  9.4940276159260408e-07  5.8465274822356873e-07  5.8125626202377791e-07  3.5381618402614484e-07  3.5146309497841776e-07  2.1146747700343285e-07  2.0987408295525773e-07  1.2481514197352073e-07  1.2375849499897155e-07  7.2747571377036682e-08  7.2060399051108581e-08  4.1866367957077754e-08  4.1427655176066768e-08  2.3788886718046885e-08  2.3513699613152415e-08  1.3344729705467480e-08  1.3175032400587233e-08  7.3898468383860338e-09  7.2869202704426277e-09  4.0393603504875011e-09  3.9779353140301406e-09  2.1792206538975051e-09  2.1431412782518688e-09  1.1602707356193521e-09  1.1394085393094291e-09  6.0959777376021007e-10  5.9772030334358353e-10  3.1601509864808744e-10  3.0935613699757263e-10  1.6162380878115815e-10  1.5794717743272705e-10  8.1542994677838665e-11  7.9543705534052144e-11  4.0579089458236185e-11  3.9508313124890737e-11  1.9916349426084507e-11  1.9351524364791220e-11  9.6407829837102496e-12  9.3473967546545825e-12  4.6053737453424609e-12  4.4553963109976490e-12  2.1789135192789924e-12  2.1035557258031293e-12  1.0407930065035866e-12  1.0033213031418153e-12  5.4963741865203139e-13  5.2846375469890922e-13  4.2892596489978941e-13  3.9925651179058667e-13  1.1707983612692485e-02  1.1827264334183603e-02  1.1319274330120777e-02  1.0653077973662344e-02  9.6850293586541788e-03  8.5879990811332744e-03  7.6263952307669544e-03  6.7929890971745567e-03  6.0067346513819437e-03  5.2433038154686262e-03  4.5103192644651872e-03  3.8229262269518839e-03  3.1939351498339792e-03  2.6314218929448080e-03  2.1387308160982113e-03  1.7153617538812949e-03  1.3579969316821709e-03  1.0613762512272271e-03  8.1910013830429598e-04  6.2425006242568877e-04  4.6986681490911126e-04  3.4932566427725250e-04  2.5653968572482899e-04  1.8611138528225438e-04  1.3338357756379634e-04  9.4442032170502334e-05  6.6065197908825895e-05  4.5659042891380122e-05  3.1176633383893532e-05  2.1031845257584055e-05  1.4017323312907152e-05  9.2295935717034611e-06  6.0036701914990631e-06  3.8579079232787755e-06  2.4488877308568477e-06  1.5354884209366642e-06  9.5095766886157348e-07  5.8168367876458123e-07  3.5139509028872236e-07  2.0963207260502846e-07  1.2349268257678742e-07  7.1831130885630635e-08  4.1251232881109802e-08  2.3387130424230587e-08  1.3088625833003203e-08  7.2301590203427679e-09  3.9418143699391963e-09  2.1207768545515919e-09  1.1258962758663804e-09  5.8973714019733360e-10  3.0473705938851972e-10  1.5532687130998129e-10  7.8085119743551637e-11  3.8711092759743665e-11  1.8923468333998218e-11  9.1215214391457434e-12  4.3381819360784916e-12  2.0435171656559850e-12  9.7221692474798347e-13  5.0990840639018286e-13  3.8191506734173822e-13  1.4240100197175240e-02  1.4356043274636337e-02  1.3807159867137203e-02  1.2942454281175075e-02  1.1408199882825506e-02  9.5585161289403770e-03  8.3721188668730087e-03  7.4749002629703265e-03  6.5969651157321433e-03  5.7225859464575821e-03  4.8830039520978271e-03  4.1046403195885098e-03  3.4028799481222159e-03  2.7842886177030074e-03  2.2493503419236099e-03  1.7947036560482950e-03  1.4144388183718179e-03  1.1012129572975770e-03  8.4700480440587475e-04  6.4363280933169421e-04  4.8322897780119531e-04  3.5845413695018076e-04  2.6271940132005197e-04  1.9025643988519246e-04  1.3613594992006167e-04  9.6249538739185200e-05  6.7239389437414050e-05  4.6412760594127084e-05  3.1654353835192529e-05  2.1330551550766363e-05  1.4201411577144468e-05  9.3412907505316618e-06  6.0703079429474863e-06  3.8969339639118856e-06  2.4712777809866132e-06  1.5480384603747102e-06  9.5780476696054541e-07  5.8530031884163366e-07  3.5322920601362460e-07  2.1051269007803406e-07  1.2388246309278903e-07  7.1980622699558813e-08  4.1291268053833379e-08  2.3382914031304419e-08  1.3070617178308453e-08  7.2112101716428606e-09  3.9263636908838154e-09  2.1095850353279633e-09  1.1183547953023721e-09  5.8490863933409494e-10  3.0176571287500586e-10  1.5355731091162828e-10  7.7060699784842303e-11  3.8132877816681624e-11  1.8604590459508420e-11  8.9494030890521386e-12  4.2470573345075170e-12  1.9958942754118902e-12  9.4696573905073132e-13  4.9482629958022332e-13  3.6937058559397115e-13  1.7994420325220171e-02  1.8041170650262152e-02  1.7665518762885642e-02  1.6748951550016874e-02  1.4547974313063325e-02  1.0322372068240894e-02  9.1685211317479882e-03  8.4658198693748615e-03  7.4527212651337585e-03  6.3948239437599400e-03  5.3903095531717812e-03  4.4797329736153049e-03  3.6768043153644426e-03  2.9825514099050942e-03  2.3918389865582989e-03  1.8964173361437392e-03  1.4865772146069320e-03  1.1520487938762388e-03  8.8258037360189844e-04  6.6835798163354979e-04  5.0028156031926927e-04  3.7012480943672142e-04  2.7064046442861638e-04  1.9558377506055056e-04  1.3968679234231364e-04  9.8593107803435933e-05  6.8770287833514327e-05  4.7401961325746237e-05  3.2286241033412016e-05  2.1729344172811200e-05  1.4449905352216251e-05  9.4940572702358280e-06  6.1628910270548010e-06  3.9521952954526379e-06  2.5037283733086895e-06  1.5667610828767372e-06  9.6840093288698803e-07  5.9117070774494387e-07  3.5640408480677832e-07  2.1218254474636412e-07  1.2473186465745291e-07  7.2394893064698590e-08  4.1482179548663839e-08  2.3463729925764730e-08  1.3100004400114332e-08  7.2183854588657856e-09  3.9251517216073836e-09  2.1060669784942837e-09  1.1149023983253595e-09  5.8223444005050826e-10  2.9991654331502306e-10  1.5236567893312256e-10  7.6330562042436483e-11  3.7702814432648747e-11  1.8359442287093436e-11  8.8135462716733518e-12  4.1735480536008996e-12  1.9567390469586882e-12  9.2585986202412515e-13  4.8219678222624353e-13  3.5916453755492032e-13  2.2972475194999460e-02  2.2803558883019777e-02  2.3030557089938924e-02  2.2313484681750526e-02  2.1482508365505693e-02  9.9922926729207693e-03  1.0842119614001876e-02  8.6193971069853693e-03  7.2453087457613682e-03  6.0036537918538996e-03  4.9207321851450535e-03  3.9932158799088555e-03  3.2089602396039646e-03  2.5532717526481137e-03  2.0110543271414771e-03  1.5675863656668288e-03  1.2089791015878939e-03  9.2235793207580462e-04  6.9597159555985044e-04  5.1931836448663559e-04  3.8315127101618674e-04  2.7948350028744935e-04  2.0153455695618930e-04  1.4365648999527499e-04  1.0121625246681113e-04  7.0486420073805414e-05  4.8512938030075231e-05  3.2997531713157813e-05  2.2179467494307869e-05  1.4731288522184031e-05  9.6677043369400061e-06  6.2686055458986271e-06  4.0156348471997583e-06  2.5412219755236232e-06  1.5885620339845419e-06  9.8085686512642000e-07  5.9815297937017950e-07  3.6023670949764994e-07  2.1423734901418887e-07  1.2580414196572427e-07  7.2936810241980067e-08  4.1745405076978971e-08  2.3585067217323323e-08  1.3151850946625344e-08  7.2378741997836663e-09  3.9306178208688871e-09  2.1061317873847758e-09  1.1133518257321968e-09  5.8055912730035065e-10  2.9858653970102058e-10  1.5144110730988540e-10  7.5736403721990509e-11  3.7341290683309585e-11  1.8148496381444492e-11  8.6945878107397188e-12  4.1083084504080701e-12  1.9216135352146974e-12  9.0677781279412647e-13  4.7076854057507946e-13  3.4997892107646332e-13  2.9043729378764521e-02  2.8199701404984966e-02  3.0145577873384469e-02  2.8783343813590465e-02  2.6332556000463109e-02  1.2326692286282477e-02  1.5749658817577256e-02  1.0042952287466381e-02  8.1960530204843052e-03  6.6619609333410743e-03  5.3836341410307261e-03  4.3208185229763798e-03  3.4412338447236388e-03  2.7178291654526496e-03  2.1273319364371155e-03  1.6494673121178654e-03  1.2663682654971578e-03  9.6236702362128689e-04  7.2370224449648209e-04  5.3840495334043538e-04  3.9619574041733092e-04  2.8832926901540363e-04  2.0748484617552228e-04  1.4762257390387010e-04  1.0383491836575445e-04  7.2198265803487201e-05  4.9620250976748711e-05  3.3705873655427845e-05  2.2627319186560556e-05  1.5010976028746701e-05  9.8401173728415102e-06  6.3734412593145360e-06  4.0784606158386270e-06  2.5782945711006418e-06  1.6100791244857320e-06  9.9312456512287052e-07  6.0501245838875521e-07  3.6399052075422116e-07  2.1624238044266412e-07  1.2684549461752277e-07  7.3459827529811901e-08  4.1997271103259000e-08  2.3699692018381209e-08  1.3199799287339239e-08  7.2551392157569916e-09  3.9348386048632512e-09  2.1055124377435644e-09  1.1114328591982156e-09  5.7868961085127030e-10  2.9715644744995643e-10  1.5046620041808627e-10  7.5117605653795777e-11  3.6968067579748763e-11  1.7932190148792561e-11  8.5732796634499784e-12  4.0421002422195703e-12  1.8861312318822680e-12  8.8760382009072311e-13  4.5935783846002846e-13  3.4082209064974342e-13  3.4496553752708846e-02  3.2826096421517341e-02  3.7982785417293878e-02  3.6203752389572089e-02  2.9493663836362347e-02  2.2579247166820637e-02  2.3711534012673917e-02  1.8326356980827015e-02  1.4287653094446502e-02  1.1345497151080094e-02  9.0791884125982578e-03  7.2734806391882411e-03  5.8121862632086307e-03  4.6228049974840800e-03  3.6544765546468500e-03  2.8683308247539367e-03  2.2333266971370984e-03  1.7238730599788948e-03  1.3183950396736832e-03  9.9855179773178479e-04  7.4872165322348869e-04  5.5559515191801298e-04  4.0791914672371865e-04  2.9626164729341844e-04  2.1280670842027674e-04  1.5116192110430963e-04  1.0616521387137165e-04  7.3716783962201617e-05  5.0598996706091751e-05  3.4329396805741974e-05  2.3019701368898185e-05  1.5254701892770301e-05  9.9894238130219325e-06  6.4635661648109044e-06  4.1320088003087801e-06  2.6095725518301436e-06  1.6280127841314137e-06  1.0031986963348166e-06  6.1054309528572101e-07  3.6694788486378576e-07  2.1777524809334465e-07  1.2761004515012991e-07  7.3822419050117889e-08  4.2157242146945257e-08  2.3762304658991546e-08  1.3218667786731092e-08  7.2563486181783611e-09  3.9303079755745841e-09  2.1001853907252226e-09  1.1070154334516424e-09  5.7551237468101666e-10  2.9505156220898350e-10  1.4914816203828994e-10  7.4326942137827156e-11  3.6510095463130853e-11  1.7674765336325817e-11  8.4323579438201977e-12  3.9667039496751514e-12  1.8464220929314045e-12  8.6649052002277779e-13  4.4695067278778837e-13  3.3085592593394147e-13  3.6411163137053622e-02  3.5011725459107371e-02  3.9909606751287935e-02  3.8568027753345571e-02  3.1372002641685284e-02  2.4770129882470578e-02  1.9565427152999793e-02  1.5454153001742165e-02  1.2258104439462188e-02  9.7482675828779678e-03  7.7530311438123332e-03  6.1529997064947821e-03  4.8641857136835507e-03  3.8250141921157945e-03  2.9885483888978542e-03  2.3178316367534453e-03  1.7830516473931902e-03  1.3596467665100366e-03  1.0271629851252536e-03  7.6844699934376518e-04  5.6909784360200386e-04  4.1709523305352730e-04  3.0244602674532665e-04  2.1693557528979347e-04  1.5389137608345571e-04  1.0795146365734925e-04  7.4872001922535343e-05  5.1337015122853931e-05  3.4794773443084270e-05  2.3309042893094241e-05  1.5431877548973719e-05  1.0096134222240481e-05  6.5266791644336342e-06  4.1685902918206265e-06  2.6302972667975311e-06  1.6394478666886815e-06  1.0093119879170201e-06  6.1368487004321817e-07  3.6847987751936191e-07  2.1846692001404070e-07  1.2788369114705633e-07  7.3901788857940622e-08  4.2155709206610527e-08  2.3733912680004129e-08  1.3186876728355529e-08  7.2297052374708189e-09  3.9106566023242749e-09  2.0867550972359082e-09  1.0983124724395285e-09  5.7009907610928440e-10  2.9179597997910603e-10  1.4724628537292332e-10  7.3244318635762032e-11  3.5908283325899668e-11  1.7347557487479108e-11  8.2581227333657367e-12  3.8756781780099124e-12  1.7995129064639035e-12  8.4206597600270180e-13  4.3277822145890819e-13  3.1925191419378667e-13  3.5761161469245323e-02  3.5237098134422697e-02  3.6802464704217781e-02  3.5451962841685586e-02  3.0586960978053582e-02  2.4949150206754776e-02  2.0088484105991507e-02  1.6045853235769417e-02  1.2773693267190149e-02  1.0150953411844620e-02  8.0516684548795851e-03  6.3689675350750838e-03  5.0183186263520118e-03  3.9342062666794997e-03  3.0654782487083043e-03  2.3717978003655309e-03  1.8207125864694495e-03  1.3858005649523390e-03  1.0452086546112135e-03  7.8080527127212561e-04  5.7749707059443281e-04  4.2275281164194179e-04  3.0621639985233662e-04  2.1942199869533858e-04  1.5550984078235221e-04  1.0899163464376246e-04  7.5529905934646502e-05  5.1746162614974867e-05  3.5044409662459661e-05  2.3458062300295874e-05  1.5518583895179497e-05  1.0145044046318996e-05  6.5532074530947652e-06  4.1822373259994296e-06  2.6367859966838634e-06  1.6421353519675597e-06  1.0101055824705010e-06  6.1362569640405460e-07  3.6810657393752655e-07  2.1803699218531676e-07  1.2750449994444760e-07  7.3605525849627768e-08  4.1940570325705880e-08  2.3585500947029885e-08  1.3088469681483691e-08  7.1665457115912866e-09  3.8712417508442268e-09  2.0627663260157116e-09  1.0840430212377589e-09  5.6179056263585248e-10  2.8705525070756314e-10  1.4459328952862693e-10  7.1787284037184716e-11  3.5122598218743568e-11  1.6931431719307303e-11  8.0415878360022262e-12  3.7649092742894352e-12  1.7436258928798605e-12  8.1366377716770490e-13  4.1646629427161384e-13  3.0456849208503267e-13  3.5372044795567083e-02  3.5180457820455348e-02  3.5532636474923295e-02  3.3898655714195328e-02  2.9841534191347347e-02  2.4857389963441435e-02  2.0195948098496140e-02  1.6207925918906008e-02  1.2929147169669480e-02  1.0278685984482425e-02  8.1490897126560505e-03  6.4403903479791228e-03  5.0695541181565162e-03  3.9704360359269011e-03  3.0908568056137006e-03  2.3894116643104410e-03  1.8328353623286618e-03  1.3940439430727022e-03  1.0507455879944197e-03  7.8447012207770645e-04  5.7987986101891670e-04  4.2426509438887053e-04  3.0715174987546486e-04  2.1998014902085308e-04  1.5582685856289504e-04  1.0915782231628024e-04  7.5605854785307442e-05  5.1770840750221112e-05  3.5042126887404312e-05  2.3443418379335190e-05  1.5499900703677439e-05  1.0126707319036435e-05  6.5372302082010248e-06  4.1692767772658633e-06  2.6267841545131392e-06  1.6347064412890415e-06  1.0047577664819283e-06  6.0987795811090982e-07  3.6554202953917536e-07  2.1631981145282066e-07  1.2637769565283042e-07  7.2880094862347050e-08  4.1481979833213622e-08  2.3300653141080451e-08  1.2914541003402314e-08  7.0621070242163676e-09  3.8095530085077582e-09  2.0269157404880638e-09  1.0635408902224883e-09  5.5025177314736512e-10  2.8066366145424189e-10  1.4110864191011056e-10  6.9917416432164140e-11  3.4135066223735120e-11  1.6418163781203238e-11  7.7791055600588121e-12  3.6329074660129580e-12  1.6784042308637224e-12  7.8176406507206300e-13  3.9888529490535487e-13  2.8179181452394172e-13  </DataArray> 
</PointData> 
</Piece>
</UnstructuredGrid>
</VTKFile>