<?xml version="1.0"?>
<VTKFile type="UnstructuredGrid"  version="0.1"  >
<UnstructuredGrid>
<Piece  NumberOfPoints="670" NumberOfCells="1192">
<Points>
<DataArray  type="Float64"  NumberOfComponents="3"  format="ascii">0 0 0  0.04 -1.31357e-10 0  0.0400579 0.0400582 0  0 0.04 0  0.08 -2.62713e-10 0  0.080123 0.0401093 0  0.12 -3.9407e-10 0  0.120183 0.040127 0  0.16 -5.25427e-10 0  0.160176 0.0400597 0  0.2 -6.56784e-10 0  0.199997 0.0399142 0  0.24 -7.8814e-10 0  0.239816 0.0400642 0  0.28 -9.19497e-10 0  0.279804 0.0401377 0  0.32 -1.05085e-09 0  0.319855 0.0401297 0  0.36 -1.18221e-09 0  0.359906 0.0400945 0  0.4 -1.31357e-09 0  0.399941 0.0400609 0  0.44 -1.44492e-09 0  0.439962 0.0400367 0  0.48 -1.57628e-09 0  0.479975 0.0400214 0  0.52 -1.70764e-09 0  0.519983 0.0400122 0  0.5600000000000001 -1.83899e-09 0  0.559987 0.0400069 0  0.6 -1.97035e-09 0  0.59999 0.040004 0  0.64 -2.10171e-09 0  0.639993 0.0400023 0  0.68 -2.23306e-09 0  0.679994 0.0400013 0  0.72 -2.36442e-09 0  0.7199950000000001 0.0400008 0  0.76 -2.49578e-09 0  0.759996 0.0400005 0  0.8 -2.62713e-09 0  0.799997 0.0400002 0  0.84 -2.75849e-09 0  0.839997 0.0400001 0  0.88 -2.88985e-09 0  0.8799979999999999 0.04 0  0.92 -3.0212e-09 0  0.919999 0.0399999 0  0.96 -3.15256e-09 0  0.959999 0.0399998 0  1 -3.28392e-09 0  1 0.0399998 0  1.04 -3.41527e-09 0  1.04 0.0399998 0  1.08 -3.54663e-09 0  1.08 0.0399998 0  1.12 -3.67799e-09 0  1.12 0.0399998 0  1.16 -3.80934e-09 0  1.16 0.0399999 0  1.2 -3.9407e-09 0  1.2 0.04 0  1.24 -4.07206e-09 0  1.24 0.04 0  1.28 -4.20341e-09 0  1.28 0.0400001 0  1.32 -4.33477e-09 0  1.32 0.0400001 0  1.36 -4.46613e-09 0  1.36 0.04 0  1.4 -4.59748e-09 0  1.4 0.04 0  1.44 -4.72884e-09 0  1.44 0.04 0  1.48 -4.8602e-09 0  1.48 0.04 0  1.52 -4.99156e-09 0  1.52 0.04 0  1.56 -5.12291e-09 0  1.56 0.04 0  1.6 -5.25427e-09 0  1.6 0.0400001 0  1.64 -5.38563e-09 0  1.64 0.0400001 0  1.68 -5.51698e-09 0  1.68 0.04 0  1.72 -5.64834e-09 0  1.72 0.04 0  1.76 -5.7797e-09 0  1.76 0.04 0  1.8 -5.91105e-09 0  1.8 0.04 0  1.84 -6.04241e-09 0  1.84 0.04 0  1.88 -6.17377e-09 0  1.88 0.0400001 0  1.92 -6.30512e-09 0  1.92 0.0400001 0  1.96 -6.43648e-09 0  1.96 0.0400001 0  2 -6.56784e-09 0  2 0.0400001 0  2.04 -6.69919e-09 0  2.04 0.0400001 0  2.08 -6.83055e-09 0  2.08 0.04 0  2.12 -6.96191e-09 0  2.12 0.04 0  2.16 -7.09326e-09 0  2.16 0.0400001 0  2.2 -7.22462e-09 0  2.2 0.04 0  2.24 -7.35598e-09 0  2.24 0.04 0  2.28 -7.48733e-09 0  2.28 0.0399999 0  2.32 -7.618690000000001e-09 0  2.32 0.04 0  2.36 -7.750049999999999e-09 0  2.36 0.04 0  2.4 -7.8814e-09 0  2.4 0.04 0  0.0401088 0.0801235 0  0 0.08 0  0.0802509 0.0802518 0  0.120434 0.0803392 0  0.160522 0.0801977 0  0.199995 0.0795328 0  0.239464 0.0802049 0  0.279544 0.08035689999999999 0  0.319711 0.0802867 0  0.359828 0.08018740000000001 0  0.399896 0.0801123 0  0.439933 0.0800646 0  0.479955 0.0800365 0  0.519968 0.08002049999999999 0  0.559976 0.0800116 0  0.599982 0.0800066 0  0.6399860000000001 0.0800039 0  0.679989 0.0800023 0  0.719991 0.0800014 0  0.759992 0.0800008 0  0.799994 0.0800004 0  0.839995 0.08000019999999999 0  0.879996 0.0799999 0  0.919997 0.07999970000000001 0  0.959999 0.0799996 0  1 0.0799995 0  1.04 0.0799995 0  1.08 0.0799996 0  1.12 0.07999970000000001 0  1.16 0.0799998 0  1.2 0.08 0  1.24 0.0800001 0  1.28 0.0800001 0  1.32 0.0800001 0  1.36 0.08 0  1.4 0.0799999 0  1.44 0.0799999 0  1.48 0.0799999 0  1.52 0.0799999 0  1.56 0.08 0  1.6 0.0800001 0  1.64 0.0800001 0  1.68 0.08 0  1.72 0.0799999 0  1.76 0.0799999 0  1.8 0.0799999 0  1.84 0.0799999 0  1.88 0.08 0  1.92 0.0800001 0  1.96 0.0800001 0  2 0.0800001 0  2.04 0.08 0  2.08 0.0799999 0  2.12 0.0799999 0  2.16 0.08 0  2.2 0.08 0  2.24 0.0799999 0  2.28 0.0799998 0  2.32 0.0799999 0  2.36 0.0799999 0  2.4 0.08 0  0.0401262 0.120184 0  0 0.12 0  0.0803378 0.120435 0  0.120779 0.12078 0  0.161485 0.120859 0  0.199996 0.117814 0  0.238503 0.120866 0  0.279195 0.120798 0  0.319616 0.120473 0  0.359799 0.120256 0  0.39988 0.120136 0  0.439921 0.120073 0  0.479944 0.120039 0  0.519958 0.120022 0  0.5599690000000001 0.120012 0  0.599976 0.120007 0  0.639981 0.120004 0  0.679985 0.120002 0  0.719987 0.120002 0  0.7599900000000001 0.120001 0  0.799991 0.12 0  0.839993 0.12 0  0.879995 0.12 0  0.919996 0.12 0  0.959998 0.119999 0  1 0.119999 0  1.04 0.119999 0  1.08 0.119999 0  1.12 0.12 0  1.16 0.12 0  1.2 0.12 0  1.24 0.12 0  1.28 0.12 0  1.32 0.12 0  1.36 0.12 0  1.4 0.12 0  1.44 0.12 0  1.48 0.12 0  1.52 0.12 0  1.56 0.12 0  1.6 0.12 0  1.64 0.12 0  1.68 0.12 0  1.72 0.12 0  1.76 0.12 0  1.8 0.12 0  1.84 0.12 0  1.88 0.12 0  1.92 0.12 0  1.96 0.12 0  2 0.12 0  2.04 0.12 0  2.08 0.12 0  2.12 0.12 0  2.16 0.12 0  2.2 0.12 0  2.24 0.12 0  2.28 0.12 0  2.32 0.12 0  2.36 0.12 0  2.4 0.12 0  0.0400582 0.160177 0  0 0.16 0  0.0801954 0.160525 0  0.120857 0.161488 0  0.164645 0.164645 0  0.2 0.15 0  0.235355 0.164645 0  0.279119 0.161498 0  0.319759 0.16055 0  0.359874 0.160228 0  0.399906 0.160104 0  0.439925 0.160051 0  0.479941 0.160027 0  0.519954 0.160014 0  0.559964 0.160008 0  0.5999719999999999 0.160005 0  0.639978 0.160003 0  0.679982 0.160002 0  0.719985 0.160001 0  0.759988 0.160001 0  0.79999 0.16 0  0.839992 0.16 0  0.8799940000000001 0.16 0  0.919996 0.159999 0  0.959998 0.159999 0  1 0.159999 0  1.04 0.159999 0  1.08 0.159999 0  1.12 0.16 0  1.16 0.16 0  1.2 0.16 0  1.24 0.16 0  1.28 0.16 0  1.32 0.16 0  1.36 0.16 0  1.4 0.16 0  1.44 0.16 0  1.48 0.16 0  1.52 0.16 0  1.56 0.16 0  1.6 0.16 0  1.64 0.16 0  1.68 0.16 0  1.72 0.16 0  1.76 0.16 0  1.8 0.16 0  1.84 0.16 0  1.88 0.16 0  1.92 0.16 0  1.96 0.16 0  2 0.16 0  2.04 0.16 0  2.08 0.16 0  2.12 0.16 0  2.16 0.16 0  2.2 0.16 0  2.24 0.16 0  2.28 0.16 0  2.32 0.16 0  2.36 0.16 0  2.4 0.16 0  0.0399111 0.2 0  0 0.2 0  0.0795281 0.2 0  0.117811 0.2 0  0.15 0.2 0  0.282167 0.2 0  0.25 0.2 0  0.320429 0.2 0  0.36003 0.200001 0  0.399944 0.200001 0  0.439934 0.200001 0  0.479942 0.200001 0  0.519953 0.200001 0  0.559963 0.200001 0  0.59997 0.200001 0  0.639976 0.200001 0  0.6799809999999999 0.200001 0  0.719984 0.200001 0  0.759987 0.200001 0  0.799989 0.2 0  0.839991 0.2 0  0.879993 0.2 0  0.919996 0.199999 0  0.959998 0.199999 0  1 0.199999 0  1.04 0.199999 0  1.08 0.199999 0  1.12 0.2 0  1.16 0.2 0  1.2 0.2 0  1.24 0.2 0  1.28 0.2 0  1.32 0.2 0  1.36 0.2 0  1.4 0.2 0  1.44 0.2 0  1.48 0.2 0  1.52 0.2 0  1.56 0.2 0  1.6 0.2 0  1.64 0.2 0  1.68 0.2 0  1.72 0.2 0  1.76 0.2 0  1.8 0.2 0  1.84 0.2 0  1.88 0.2 0  1.92 0.2 0  1.96 0.2 0  2 0.2 0  2.04 0.2 0  2.08 0.2 0  2.12 0.2 0  2.16 0.2 0  2.2 0.2 0  2.24 0.2 0  2.28 0.2 0  2.32 0.2 0  2.36 0.2 0  2.4 0.2 0  0.0400582 0.239823 0  0 0.24 0  0.0801953 0.239475 0  0.120857 0.238513 0  0.164645 0.235355 0  0.279119 0.238502 0  0.235355 0.235355 0  0.319759 0.239451 0  0.359873 0.239774 0  0.399905 0.239898 0  0.439925 0.239951 0  0.479941 0.239976 0  0.519954 0.239988 0  0.559964 0.239994 0  0.5999719999999999 0.239997 0  0.639977 0.239999 0  0.679982 0.24 0  0.719985 0.24 0  0.759987 0.24 0  0.79999 0.24 0  0.839992 0.24 0  0.8799940000000001 0.24 0  0.919996 0.239999 0  0.959998 0.239999 0  1 0.239999 0  1.04 0.239999 0  1.08 0.239999 0  1.12 0.24 0  1.16 0.24 0  1.2 0.24 0  1.24 0.24 0  1.28 0.24 0  1.32 0.24 0  1.36 0.24 0  1.4 0.24 0  1.44 0.24 0  1.48 0.24 0  1.52 0.24 0  1.56 0.24 0  1.6 0.24 0  1.64 0.24 0  1.68 0.24 0  1.72 0.24 0  1.76 0.24 0  1.8 0.24 0  1.84 0.24 0  1.88 0.24 0  1.92 0.24 0  1.96 0.24 0  2 0.24 0  2.04 0.24 0  2.08 0.24 0  2.12 0.24 0  2.16 0.24 0  2.2 0.24 0  2.24 0.24 0  2.28 0.24 0  2.32 0.24 0  2.36 0.24 0  2.4 0.24 0  0.0401261 0.279816 0  0 0.28 0  0.0803376 0.279565 0  0.120778 0.27922 0  0.161485 0.279141 0  0.2 0.25 0  0.199996 0.282186 0  0.238503 0.279135 0  0.279195 0.279202 0  0.319616 0.279528 0  0.359799 0.279745 0  0.39988 0.279865 0  0.43992 0.279929 0  0.479944 0.279962 0  0.519958 0.27998 0  0.559968 0.27999 0  0.599976 0.279995 0  0.639981 0.279998 0  0.679984 0.279999 0  0.719987 0.28 0  0.759989 0.28 0  0.799991 0.28 0  0.839993 0.28 0  0.879995 0.28 0  0.919997 0.279999 0  0.959998 0.279999 0  1 0.279999 0  1.04 0.279999 0  1.08 0.28 0  1.12 0.28 0  1.16 0.28 0  1.2 0.28 0  1.24 0.28 0  1.28 0.28 0  1.32 0.28 0  1.36 0.28 0  1.4 0.28 0  1.44 0.28 0  1.48 0.28 0  1.52 0.28 0  1.56 0.28 0  1.6 0.28 0  1.64 0.28 0  1.68 0.28 0  1.72 0.28 0  1.76 0.28 0  1.8 0.28 0  1.84 0.28 0  1.88 0.28 0  1.92 0.28 0  1.96 0.28 0  2 0.28 0  2.04 0.28 0  2.08 0.28 0  2.12 0.28 0  2.16 0.28 0  2.2 0.28 0  2.24 0.28 0  2.28 0.28 0  2.32 0.28 0  2.36 0.28 0  2.4 0.28 0  0.0401086 0.319877 0  0 0.32 0  0.08025060000000001 0.319748 0  0.120433 0.319661 0  0.160522 0.319802 0  0.199995 0.320467 0  0.239464 0.319795 0  0.279543 0.319643 0  0.31971 0.319714 0  0.359828 0.319813 0  0.399895 0.319889 0  0.439933 0.319937 0  0.479955 0.319965 0  0.519968 0.319981 0  0.559976 0.31999 0  0.599982 0.319995 0  0.6399860000000001 0.319998 0  0.679989 0.319999 0  0.719991 0.32 0  0.759992 0.32 0  0.799994 0.32 0  0.839995 0.32 0  0.879996 0.32 0  0.919998 0.32 0  0.959999 0.32 0  1 0.32 0  1.04 0.32 0  1.08 0.32 0  1.12 0.32 0  1.16 0.32 0  1.2 0.32 0  1.24 0.32 0  1.28 0.32 0  1.32 0.32 0  1.36 0.32 0  1.4 0.32 0  1.44 0.32 0  1.48 0.32 0  1.52 0.32 0  1.56 0.32 0  1.6 0.32 0  1.64 0.32 0  1.68 0.32 0  1.72 0.32 0  1.76 0.32 0  1.8 0.32 0  1.84 0.32 0  1.88 0.32 0  1.92 0.32 0  1.96 0.32 0  2 0.32 0  2.04 0.32 0  2.08 0.32 0  2.12 0.32 0  2.16 0.32 0  2.2 0.32 0  2.24 0.32 0  2.28 0.32 0  2.32 0.32 0  2.36 0.32 0  2.4 0.32 0  0.0400579 0.359942 0  0 0.36 0  0.0801229 0.359891 0  0.120183 0.359873 0  0.160175 0.35994 0  0.199997 0.360086 0  0.239816 0.359936 0  0.279804 0.359862 0  0.319855 0.359871 0  0.359906 0.359906 0  0.399941 0.35994 0  0.439962 0.359964 0  0.479975 0.359979 0  0.5199820000000001 0.359989 0  0.559987 0.359994 0  0.59999 0.359997 0  0.639993 0.359998 0  0.679994 0.359999 0  0.7199950000000001 0.36 0  0.759996 0.36 0  0.799997 0.36 0  0.839997 0.36 0  0.8799979999999999 0.36 0  0
[...]
<PointData  Scalars="f_10391-2"> 
<DataArray  type="Float64"  Name="f_10391-2"  format="ascii">2.4362417436015214e-04  2.4291855566678297e-04  2.5821245422102534e-04  2.5912972141989087e-04  2.3032196337051576e-04  2.4706077065942008e-04  1.9968875613176899e-04  2.1428343284496005e-04  1.5672494692885357e-04  1.6611489545406206e-04  1.1348067219970283e-04  1.1839746003128101e-04  7.7489781014752576e-05  7.9719461130762861e-05  5.0848600645686243e-05  5.1798121817972621e-05  3.2361569285824032e-05  3.2769582947790148e-05  2.0028137886475558e-05  2.0206884528465988e-05  1.2050069021478941e-05  1.2125800633541295e-05  7.0403529275549900e-06  7.0681110667191617e-06  3.9900612139841616e-06  3.9962324127789859e-06  2.1916434660765767e-06  2.1893914372622650e-06  1.1659715968219470e-06  1.1615293182015710e-06  6.0052296480135732e-07  5.9640476948026457e-07  2.9932139410378344e-07  2.9626580583802064e-07  1.4433833040034667e-07  1.4233962618868663e-07  6.7320820360683444e-08  6.6119509830789772e-08  3.0362446777076642e-08  2.9687109155827723e-08  1.3238637795129396e-08  1.2880039794550248e-08  5.5791319347761649e-09  5.3983390633503604e-09  2.2719847920455526e-09  2.1849668387121176e-09  8.9382556241851365e-10  8.5376829648846374e-10  3.3962188694186841e-10  3.2196607038172844e-10  1.2460077099159970e-10  1.1713154462351760e-10  4.4126908408813984e-11  4.1094447699718625e-11  1.5080556568830570e-11  1.3897790373995392e-11  4.9719808380932889e-12  4.5286102112446102e-12  1.5808858567496205e-12  1.4211073823302552e-12  4.8460093456890409e-13  4.2923825640360927e-13  1.4316149434328355e-13  1.2471618718647729e-13  4.0744002545443153e-14  3.4834879690210423e-14  1.1166647598023872e-14  9.3465534485471341e-15  2.9458923588529984e-15  2.4069524851502091e-15  7.4772881394166987e-16  5.9434202356978477e-16  1.8250837714635090e-16  1.4055789985727218e-16  4.2814058439625958e-17  3.1791946994693861e-17  9.6466527063758464e-18  6.8655052104042396e-18  2.0860958026169840e-18  1.4124416289489791e-18  4.3260049997296284e-19  2.7603554465930876e-19  8.5939159714415131e-20  5.1046069349793742e-20  1.6334575589602553e-20  8.8828072171111169e-21  2.9660013032008256e-21  1.4423855310927054e-21  5.1349651985185492e-22  2.1556810330786296e-22  8.4549605858664800e-23  2.8912199599275812e-23  1.3195771048769384e-23  3.2905442452921939e-24  1.9431325304419489e-24  2.6592477539287830e-25  2.6819264677526635e-25  -1.0592102697733767e-27  3.4352401236688725e-26  -6.4491608602822097e-27  4.0186228959496435e-27  -1.7810385567299350e-27  4.1718949195663401e-28  -3.4875380683609088e-28  3.6144291627626280e-29  -5.6399051606037820e-29  2.1655876489549307e-30  -7.7828133357874913e-30  -7.2168747963913112e-33  -9.0339576428361293e-31  -2.5106477085501830e-32  -8.1361045016503897e-32  -3.9553627824427527e-33  -3.7908735567159894e-33  -2.7281759465052663e-34  4.6220203694244023e-34  2.7845922029953887e-35  1.5969717715702973e-34  1.3222706169034633e-35  2.6548459356686928e-35  5.7478321909135029e-36  5.6585599208733061e-36  2.9503561018564168e-04  2.9339071393984825e-04  2.8905481865799866e-04  2.5303943128659540e-04  1.9201109910134357e-04  1.3169382000897481e-04  8.5412562870845570e-05  5.4224136254396012e-05  3.3935726065286337e-05  2.0824352889011089e-05  1.2460378770469449e-05  7.2452936057480905e-06  4.0861446978251799e-06  2.2328395373376576e-06  1.1814229796298688e-06  6.0499071725677923e-07  2.9973140607643240e-07  1.4361783477370299e-07  6.6533732200311208e-08  2.9792135801078640e-08  1.2889416970007119e-08  5.3866454682680266e-09  2.1737206275720267e-09  8.4671819792771838e-10  3.1823932498056867e-10  1.1537276041512300e-10  4.0328527028470304e-11  1.3585669156875101e-11  4.4086989463903722e-12  1.3774828000162654e-12  4.1417166252900003e-13  1.1977005059230555e-13  3.3290911620506694e-14  8.8884731096942889e-15  2.2779365912364439e-15  5.5992419558455270e-16  1.3189185045823529e-16  2.9744022851950417e-17  6.4154717759887188e-18  1.3219706486740452e-18  2.5993680625820429e-19  4.8713674614664985e-20  8.6916638397176754e-21  1.4754105981601400e-21  2.3831271326886180e-22  3.6699637763313853e-23  5.4178770193344119e-24  7.7559188478897719e-25  1.0984204720384434e-25  1.5822160699679542e-26  2.3787596222855347e-27  3.7610423015667924e-28  6.1405034040537382e-29  1.0009598960090199e-29  1.5742654025619307e-30  2.3198831846132655e-31  3.1137807353548302e-32  3.6602242394724551e-33  3.4648570921632082e-34  1.9142493075942073e-35  -3.1101311122902873e-36  3.3314668756102492e-04  3.3012250272647392e-04  3.3138016688841486e-04  2.9636413587478747e-04  2.2536171588244072e-04  1.4729562667921298e-04  9.0256127294687470e-05  5.6010936629165110e-05  3.4968704873955205e-05  2.1486984787124139e-05  1.2861297019281147e-05  7.4700730135157432e-06  4.2043541624739872e-06  2.2917033354480435e-06  1.2092966848173278e-06  6.1760261762191731e-07  3.0517312886154780e-07  1.4584899461905975e-07  6.7398662070253996e-08  3.0103864004273552e-08  1.2992643230715626e-08  5.4162866555168520e-09  2.1801505829084910e-09  8.4703548639364791e-10  3.1751038574789730e-10  1.1478629456529044e-10  4.0006800925794087e-11  1.3436037411392168e-11  4.3460550477270221e-12  1.3532686264984639e-12  4.0541945703037472e-13  1.1679033794775752e-13  3.2331251929809802e-14  8.5953204062055989e-15  2.1928666901479168e-15  5.3645242004681764e-16  1.2573160289618318e-16  2.8205841373992988e-17  6.0500154843849324e-18  1.2393224519084645e-18  2.4212886619462818e-19  4.5049533171497835e-20  7.9683201549948149e-21  1.3372198695783015e-21  2.1239737776501121e-22  3.1832561180454729e-23  4.4822685628972028e-24  5.8882128032025722e-25  7.1184150241543585e-26  7.6644826231365806e-27  6.6352197804653505e-28  2.4058137009258455e-29  -8.0846222808572802e-30  -3.0503525053597144e-30  -7.4633521775973515e-31  -1.5551733844179931e-31  -2.9261990024925742e-32  -5.0437122371399211e-33  -7.9528603353976540e-34  -1.1534744531886377e-34  -2.8306638689124298e-35  3.5838476293005269e-04  3.5611156188306193e-04  3.5644309128872681e-04  3.2881067815751768e-04  2.6744209545623298e-04  1.5476590033137088e-04  8.3199476703602767e-05  5.4151724685491029e-05  3.4970793459240666e-05  2.1838133269023370e-05  1.3150359309385238e-05  7.6468929620622875e-06  4.2996035223362045e-06  2.3392172730489342e-06  1.2317020244249981e-06  6.2762228136101197e-07  3.0942615056007941e-07  1.4755650173555528e-07  6.8038225980017198e-08  3.0323728757045352e-08  1.3058709457555584e-08  5.4317031233876665e-09  2.1813431730015610e-09  8.4545827289190856e-10  3.1612627990611986e-10  1.1398342286765408e-10  3.9615345021776786e-11  1.3264626818229778e-11  4.2767863017292153e-12  1.3270855140245859e-12  3.9608830030538718e-13  1.1364032310466347e-13  3.1321008560303435e-14  8.2869337192412689e-15  2.1031541152879132e-15  5.1156214004322433e-16  1.1914245831075219e-16  2.6540997326488406e-17  5.6484721740478901e-18  1.1468623179999227e-18  2.2180041107969457e-19  4.0780932562115759e-20  7.1119604883794080e-21  1.1729991489197037e-21  1.8228061123836220e-22  2.6550429958261610e-23  3.5975883630728149e-24  4.4807072084559704e-25  5.0209779815564517e-26  4.8398664723608581e-27  3.5401315502455307e-28  8.7411255057654142e-30  -2.9209445891293421e-30  -6.4414063425760180e-31  -5.7281034321653546e-32  8.3947216748442151e-33  5.4829205894821708e-33  1.6854790991983320e-33  4.0721686683089497e-34  8.7143185101362925e-35  3.1852664725975988e-35  3.6871340804977529e-04  3.6663156909254449e-04  3.6580370640900377e-04  3.4438481560331610e-04  3.1651938063650275e-04  4.9752686339460506e-05  6.3154042867537657e-05  3.4337508208719540e-05  2.1882788480929163e-05  1.3252342791009900e-05  7.7135931705519654e-06  4.3344550753064196e-06  2.3554605205533252e-06  1.2385832417327883e-06  6.3024945513310504e-07  3.1027131110646439e-07  1.4773590411138580e-07  6.8015342170770895e-08  3.0264186750508856e-08  1.3010682150159686e-08  5.4018122157636569e-09  2.1650739325161248e-09  8.3735046334432264e-10  3.1237456645070708e-10  1.1234961670756774e-10  3.8941452550361016e-11  1.3000358433355862e-11  4.1780124917049586e-12  1.2918455487305718e-12  3.8407461644385745e-13  1.0972443032872826e-13  3.0100219131863437e-14  7.9228896576520246e-15  1.9993190142411837e-15  4.8324028251914259e-16  1.1175760246537086e-16  2.4701037527686165e-17  5.2106789836154335e-18  1.0474566346312086e-18  2.0028012950190950e-19  3.6343916393480704e-20  6.2419920287199454e-21  1.0111105186070318e-21  1.5377206612337150e-22  2.1820577175810377e-23  2.8636793711092078e-24  3.4295918639761958e-25  3.6672497775217817e-26  3.3658008027066280e-27  2.4412545521729688e-28  1.1248863027049532e-29  1.8723288500312565e-31  1.1290698022138688e-31  6.1914209156723674e-32  1.7851725023716059e-32  3.7069957606512618e-33  5.8831121750444846e-34  6.2602563453208127e-35  -6.6384766582110566e-37  -5.1799871573331247e-36  3.6164148130498144e-04  3.5822576890676768e-04  3.5752615210598860e-04  3.2396536098827671e-04  2.6265688479026395e-04  5.4258333194571483e-05  8.3894866117727567e-05  3.5143761847624367e-05  2.1933460196669178e-05  1.3184519356690783e-05  7.6523434194332688e-06  4.2950521851451910e-06  2.3327465597723214e-06  1.2261728536990625e-06  6.2367275062216793e-07  3.0688442622351407e-07  1.4602882702347038e-07  6.7175186167862691e-08  2.9861581012049423e-08  1.2822224584617176e-08  5.3162176503461463e-09  2.1273691756807548e-09  8.2129064436359551e-10  3.0575158732518995e-10  1.0971188954431420e-10  3.7928010515485167e-11  1.2625147283362434e-11  4.0442451925362519e-12  1.2459660417733701e-12  3.6894699908641611e-13  1.0493261357632316e-13  2.8643059527722894e-14  7.4977920410840301e-15  1.8804322673749841e-15  4.5138996103932832e-16  1.0359030752449051e-16  2.2698218406920428e-17  4.7414618939740343e-18  9.4255483553245014e-19  1.7792923993282703e-19  3.1812634280614229e-20  5.3695975571703706e-21  8.5200324223424450e-22  1.2637339038845885e-22  1.7385670826467088e-23  2.1932092616739681e-24  2.4918514822271955e-25  2.4717490881937882e-26  2.0098526643907210e-27  1.1278679457335961e-28  1.0287072216049061e-30  -4.9098502631426958e-31  7.3200561608641319e-33  2.1978464543662497e-32  5.0052676494571318e-33  4.8312820430200541e-34  -6.6439385446780698e-35  -4.3768701813734302e-35  -1.2879579911901517e-35  -5.2444494931792396e-36  3.3387721828147216e-04  3.2938727469624789e-04  3.3152319869117849e-04  2.9433581698999904e-04  2.2422730471321117e-04  1.5734565304747662e-04  1.4572742080485495e-04  9.1111464560763504e-05  5.6523527935741362e-05  3.5256781115624428e-05  2.1615226559355172e-05  1.2901177456818084e-05  7.4707436031855224e-06  4.1917998250058385e-06  2.2776773762205741e-06  1.1979429995764951e-06  6.0962045430556484e-07  3.0006075022092988e-07  1.4279568030282257e-07  6.5674394038424097e-08  2.9180352173980766e-08  1.2520438269373725e-08  5.1856843845816408e-09  2.0723651384915379e-09  7.9875093538980244e-10  2.9679076406519560e-10  1.0625500061048645e-10  3.6636994616892455e-11  1.2158987571093772e-11  3.8817328590548205e-12  1.1913318141722983e-12  3.5125291863442035e-13  9.9417860460117488e-14  2.6990607839580129e-14  7.0222197384547311e-15  1.7490999810893291e-15  4.1662292630190973e-16  9.4776563624396666e-17  2.0560874193452791e-17  4.2462525777268259e-18  8.3307904691896755e-19  1.5487304441630297e-19  2.7195217237505157e-20  4.4922309301968506e-21  6.9427236050765625e-22  9.9641345960016030e-23  1.3135368395137730e-23  1.5634944970642121e-24  1.6310122888432582e-25  1.4023440248494530e-26  8.3281271256873298e-28  3.3006444668489157e-30  -6.7092883880486440e-30  -7.7755234804301911e-31  1.6692181934061932e-32  2.1257824103437974e-32  3.9988053505414634e-33  3.2402154268290614e-34  -3.6662455416084880e-35  -1.8789898015376577e-35  -3.7532270888029088e-36  -6.9651371430630634e-37  2.9050469601275695e-04  2.8825360445268911e-04  2.8649643399245516e-04  2.5426914108917864e-04  1.9463351388533179e-04  1.3261827978812657e-04  8.6258253124418615e-05  5.4667623260013800e-05  3.4169940758155104e-05  2.0919290654242845e-05  1.2477937249707497e-05  7.2287258887943473e-06  4.0602528423706588e-06  2.2088780003533982e-06  1.1630918038768171e-06  5.9243347600480630e-07  2.9178120943563812e-07  1.3889352232326164e-07  6.3876655004895178e-08  2.8370680867316190e-08  1.2163902682438877e-08  5.0325960981292688e-09  2.0083234456436159e-09  7.7266404998036960e-10  2.8646817926445136e-10  1.0229608944892742e-10  3.5165558177810804e-11  1.1630082000454604e-11  3.6981342613947600e-12  1.1298465458281335e-12  3.3141269144145123e-13  9.3255880532487834e-14  2.5150539859389093e-14  6.4944582814982273e-15  1.6038619160593247e-15  3.7831411611471255e-16  8.5102608083550971e-17  1.8224893922942488e-17  3.7076000511122565e-18  7.1465062167808850e-19  1.3009139108312165e-19  2.2270387277223498e-20  3.5652492347718619e-21  5.2958076260567391e-22  7.2150040331750534e-23  8.8512480662219129e-24  9.4608236629898560e-25  8.2034532930036772e-26  4.5784481864434461e-27  -9.1008349458150150e-29  -6.1139418510727888e-29  -7.1594737487065243e-30  3.8445003393073928e-32  1.8625466486560216e-31  4.3167983977370740e-32  5.9640814173128819e-33  4.4876206207585637e-34  -2.2044139564839810e-35  -1.3485099100800805e-35  -2.2281777156849878e-36  -2.5488073958695572e-37  2.5264948912563797e-04  2.5399646898841319e-04  2.4385413997622148e-04  2.1613889896888043e-04  1.6969625855922719e-04  1.2039170187665359e-04  8.0712025656510088e-05  5.2226710466595363e-05  3.2932581423710883e-05  2.0236002160138178e-05  1.2093336327682958e-05  7.0156592992132722e-06  3.9451539679005209e-06  2.1483106767581047e-06  1.1319535998840507e-06  5.7678120618822262e-07  2.8406725947811673e-07  1.3517213573840447e-07  6.2117631682998557e-08  2.7556856712072352e-08  1.1796475315291092e-08  4.8709064253602146e-09  1.9390385952686195e-09  7.4384803535472266e-10  2.7484136400004549e-10  9.7757907497358403e-11  3.3452187747687238e-11  1.1005644072505911e-11  3.4787040961898656e-12  1.0555832799346614e-12  3.0723215287339853e-13  8.5688638896416515e-14  2.2876692477945183e-14  5.8390598867320521e-15  1.4228436972033031e-15  3.3045818444574596e-16  7.3007060700952528e-17  1.5306066980090828e-17  3.0361500178418946e-18  5.6767322369849046e-19  9.9544958390013468e-20  1.6259360804533409e-20  2.4492160981911511e-21  3.3500349219401898e-22  4.0503556022789342e-23  4.0964105016553216e-24  2.9633494540798357e-25  3.5076268030630084e-27  -3.3251260561003082e-27  -6.4030659524061553e-28  -5.8161662855057357e-29  2.0991832067559097e-30  1.9308486587704742e-30  4.2425967414119862e-31  5.9150674982607679e-32  4.7919724850303369e-33  -1.5028513232821294e-34  -1.3815930408057685e-34  -2.8891060870130848e-35  -3.7293066681834991e-36  -4.8954661242078263e-37  2.3861837217447452e-04  2.4263661092286369e-04  2.2754076620241652e-04  2.0113345046642603e-04  1.5975513859315947e-04  1.1526177567214402e-04  7.8171337493610364e-05  5.0975491182178866e-05  3.2268264872446042e-05  1.9861529318830512e-05  1.1876261948655605e-05  6.8891811508869448e-06  3.8719995389685917e-06  2.1064897448472821e-06  1.1084380277571687e-06  5.6380266769220448e-07  2.7706485311487942e-07  1.3148342202529146e-07  6.0228172830526423e-08  2.6617998223332776e-08  1.1344817119979814e-08  4.6607636364511260e-09  1.8447065439211567e-09  7.0302029296203613e-10  2.5781873846903734e-10  9.0923686263059671e-11  3.0812962809424902e-11  1.0026033035698638e-11  3.1294552716697603e-12  9.3606624602586378e-13  2.6800036419964939e-13  7.3345066660434883e-14  1.9157134247518326e-14  4.7665384449181650e-15  1.1272104421423594e-15  2.5264729954680189e-16  5.3477388054714247e-17  1.0639027953931798e-17  1.9762450962526460e-18  3.3944322459097101e-19  5.3082553015566144e-20  7.3504484710755526e-21  8.4835069967866786e-22  6.7319357229829425e-23  -7.1189305390284726e-25  -1.6486406927585848e-24  -4.0656811485235270e-25  -6.6954996467760236e-26  -7.9088327704129220e-27  -5.0603662363776052e-28  4.6517352767606619e-29  2.2021909916643530e-29  4.2545402131739774e-30  5.3423726951596520e-31  3.3861857078059276e-32  -3.7454838930450397e-33  -1.6519448463138459e-33  -3.1322867866922031e-34  -3.8544932923229491e-35  -2.2954192929885060e-36  5.1670702478020960e-37  </DataArray> 
</PointData> 
</Piece>
</UnstructuredGrid>
</VTKFile>