<?xml version="1.0"?>
<VTKFile type="UnstructuredGrid"  version="0.1"  >
<UnstructuredGrid>
<Piece  NumberOfPoints="670" NumberOfCells="1192">
<Points>
<DataArray  type="Float64"  NumberOfComponents="3"  format="ascii">0 0 0  0.04 -1.31357e-10 0  0.0400579 0.0400582 0  0 0.04 0  0.08 -2.62713e-10 0  0.080123 0.0401093 0  0.12 -3.9407e-10 0  0.120183 0.040127 0  0.16 -5.25427e-10 0  0.160176 0.0400597 0  0.2 -6.56784e-10 0  0.199997 0.0399142 0  0.24 -7.8814e-10 0  0.239816 0.0400642 0  0.28 -9.19497e-10 0  0.279804 0.0401377 0  0.32 -1.05085e-09 0  0.319855 0.0401297 0  0.36 -1.18221e-09 0  0.359906 0.0400945 0  0.4 -1.31357e-09 0  0.399941 0.0400609 0  0.44 -1.44492e-09 0  0.439962 0.0400367 0  0.48 -1.57628e-09 0  0.479975 0.0400214 0  0.52 -1.70764e-09 0  0.519983 0.0400122 0  0.5600000000000001 -1.83899e-09 0  0.559987 0.0400069 0  0.6 -1.97035e-09 0  0.59999 0.040004 0  0.64 -2.10171e-09 0  0.639993 0.0400023 0  0.68 -2.23306e-09 0  0.679994 0.0400013 0  0.72 -2.36442e-09 0  0.7199950000000001 0.0400008 0  0.76 -2.49578e-09 0  0.759996 0.0400005 0  0.8 -2.62713e-09 0  0.799997 0.0400002 0  0.84 -2.75849e-09 0  0.839997 0.0400001 0  0.88 -2.88985e-09 0  0.8799979999999999 0.04 0  0.92 -3.0212e-09 0  0.919999 0.0399999 0  0.96 -3.15256e-09 0  0.959999 0.0399998 0  1 -3.28392e-09 0  1 0.0399998 0  1.04 -3.41527e-09 0  1.04 0.0399998 0  1.08 -3.54663e-09 0  1.08 0.0399998 0  1.12 -3.67799e-09 0  1.12 0.0399998 0  1.16 -3.80934e-09 0  1.16 0.0399999 0  1.2 -3.9407e-09 0  1.2 0.04 0  1.24 -4.07206e-09 0  1.24 0.04 0  1.28 -4.20341e-09 0  1.28 0.0400001 0  1.32 -4.33477e-09 0  1.32 0.0400001 0  1.36 -4.46613e-09 0  1.36 0.04 0  1.4 -4.59748e-09 0  1.4 0.04 0  1.44 -4.72884e-09 0  1.44 0.04 0  1.48 -4.8602e-09 0  1.48 0.04 0  1.52 -4.99156e-09 0  1.52 0.04 0  1.56 -5.12291e-09 0  1.56 0.04 0  1.6 -5.25427e-09 0  1.6 0.0400001 0  1.64 -5.38563e-09 0  1.64 0.0400001 0  1.68 -5.51698e-09 0  1.68 0.04 0  1.72 -5.64834e-09 0  1.72 0.04 0  1.76 -5.7797e-09 0  1.76 0.04 0  1.8 -5.91105e-09 0  1.8 0.04 0  1.84 -6.04241e-09 0  1.84 0.04 0  1.88 -6.17377e-09 0  1.88 0.0400001 0  1.92 -6.30512e-09 0  1.92 0.0400001 0  1.96 -6.43648e-09 0  1.96 0.0400001 0  2 -6.56784e-09 0  2 0.0400001 0  2.04 -6.69919e-09 0  2.04 0.0400001 0  2.08 -6.83055e-09 0  2.08 0.04 0  2.12 -6.96191e-09 0  2.12 0.04 0  2.16 -7.09326e-09 0  2.16 0.0400001 0  2.2 -7.22462e-09 0  2.2 0.04 0  2.24 -7.35598e-09 0  2.24 0.04 0  2.28 -7.48733e-09 0  2.28 0.0399999 0  2.32 -7.618690000000001e-09 0  2.32 0.04 0  2.36 -7.750049999999999e-09 0  2.36 0.04 0  2.4 -7.8814e-09 0  2.4 0.04 0  0.0401088 0.0801235 0  0 0.08 0  0.0802509 0.0802518 0  0.120434 0.0803392 0  0.160522 0.0801977 0  0.199995 0.0795328 0  0.239464 0.0802049 0  0.279544 0.08035689999999999 0  0.319711 0.0802867 0  0.359828 0.08018740000000001 0  0.399896 0.0801123 0  0.439933 0.0800646 0  0.479955 0.0800365 0  0.519968 0.08002049999999999 0  0.559976 0.0800116 0  0.599982 0.0800066 0  0.6399860000000001 0.0800039 0  0.679989 0.0800023 0  0.719991 0.0800014 0  0.759992 0.0800008 0  0.799994 0.0800004 0  0.839995 0.08000019999999999 0  0.879996 0.0799999 0  0.919997 0.07999970000000001 0  0.959999 0.0799996 0  1 0.0799995 0  1.04 0.0799995 0  1.08 0.0799996 0  1.12 0.07999970000000001 0  1.16 0.0799998 0  1.2 0.08 0  1.24 0.0800001 0  1.28 0.0800001 0  1.32 0.0800001 0  1.36 0.08 0  1.4 0.0799999 0  1.44 0.0799999 0  1.48 0.0799999 0  1.52 0.0799999 0  1.56 0.08 0  1.6 0.0800001 0  1.64 0.0800001 0  1.68 0.08 0  1.72 0.0799999 0  1.76 0.0799999 0  1.8 0.0799999 0  1.84 0.0799999 0  1.88 0.08 0  1.92 0.0800001 0  1.96 0.0800001 0  2 0.0800001 0  2.04 0.08 0  2.08 0.0799999 0  2.12 0.0799999 0  2.16 0.08 0  2.2 0.08 0  2.24 0.0799999 0  2.28 0.0799998 0  2.32 0.0799999 0  2.36 0.0799999 0  2.4 0.08 0  0.0401262 0.120184 0  0 0.12 0  0.0803378 0.120435 0  0.120779 0.12078 0  0.161485 0.120859 0  0.199996 0.117814 0  0.238503 0.120866 0  0.279195 0.120798 0  0.319616 0.120473 0  0.359799 0.120256 0  0.39988 0.120136 0  0.439921 0.120073 0  0.479944 0.120039 0  0.519958 0.120022 0  0.5599690000000001 0.120012 0  0.599976 0.120007 0  0.639981 0.120004 0  0.679985 0.120002 0  0.719987 0.120002 0  0.7599900000000001 0.120001 0  0.799991 0.12 0  0.839993 0.12 0  0.879995 0.12 0  0.919996 0.12 0  0.959998 0.119999 0  1 0.119999 0  1.04 0.119999 0  1.08 0.119999 0  1.12 0.12 0  1.16 0.12 0  1.2 0.12 0  1.24 0.12 0  1.28 0.12 0  1.32 0.12 0  1.36 0.12 0  1.4 0.12 0  1.44 0.12 0  1.48 0.12 0  1.52 0.12 0  1.56 0.12 0  1.6 0.12 0  1.64 0.12 0  1.68 0.12 0  1.72 0.12 0  1.76 0.12 0  1.8 0.12 0  1.84 0.12 0  1.88 0.12 0  1.92 0.12 0  1.96 0.12 0  2 0.12 0  2.04 0.12 0  2.08 0.12 0  2.12 0.12 0  2.16 0.12 0  2.2 0.12 0  2.24 0.12 0  2.28 0.12 0  2.32 0.12 0  2.36 0.12 0  2.4 0.12 0  0.0400582 0.160177 0  0 0.16 0  0.0801954 0.160525 0  0.120857 0.161488 0  0.164645 0.164645 0  0.2 0.15 0  0.235355 0.164645 0  0.279119 0.161498 0  0.319759 0.16055 0  0.359874 0.160228 0  0.399906 0.160104 0  0.439925 0.160051 0  0.479941 0.160027 0  0.519954 0.160014 0  0.559964 0.160008 0  0.5999719999999999 0.160005 0  0.639978 0.160003 0  0.679982 0.160002 0  0.719985 0.160001 0  0.759988 0.160001 0  0.79999 0.16 0  0.839992 0.16 0  0.8799940000000001 0.16 0  0.919996 0.159999 0  0.959998 0.159999 0  1 0.159999 0  1.04 0.159999 0  1.08 0.159999 0  1.12 0.16 0  1.16 0.16 0  1.2 0.16 0  1.24 0.16 0  1.28 0.16 0  1.32 0.16 0  1.36 0.16 0  1.4 0.16 0  1.44 0.16 0  1.48 0.16 0  1.52 0.16 0  1.56 0.16 0  1.6 0.16 0  1.64 0.16 0  1.68 0.16 0  1.72 0.16 0  1.76 0.16 0  1.8 0.16 0  1.84 0.16 0  1.88 0.16 0  1.92 0.16 0  1.96 0.16 0  2 0.16 0  2.04 0.16 0  2.08 0.16 0  2.12 0.16 0  2.16 0.16 0  2.2 0.16 0  2.24 0.16 0  2.28 0.16 0  2.32 0.16 0  2.36 0.16 0  2.4 0.16 0  0.0399111 0.2 0  0 0.2 0  0.0795281 0.2 0  0.117811 0.2 0  0.15 0.2 0  0.282167 0.2 0  0.25 0.2 0  0.320429 0.2 0  0.36003 0.200001 0  0.399944 0.200001 0  0.439934 0.200001 0  0.479942 0.200001 0  0.519953 0.200001 0  0.559963 0.200001 0  0.59997 0.200001 0  0.639976 0.200001 0  0.6799809999999999 0.200001 0  0.719984 0.200001 0  0.759987 0.200001 0  0.799989 0.2 0  0.839991 0.2 0  0.879993 0.2 0  0.919996 0.199999 0  0.959998 0.199999 0  1 0.199999 0  1.04 0.199999 0  1.08 0.199999 0  1.12 0.2 0  1.16 0.2 0  1.2 0.2 0  1.24 0.2 0  1.28 0.2 0  1.32 0.2 0  1.36 0.2 0  1.4 0.2 0  1.44 0.2 0  1.48 0.2 0  1.52 0.2 0  1.56 0.2 0  1.6 0.2 0  1.64 0.2 0  1.68 0.2 0  1.72 0.2 0  1.76 0.2 0  1.8 0.2 0  1.84 0.2 0  1.88 0.2 0  1.92 0.2 0  1.96 0.2 0  2 0.2 0  2.04 0.2 0  2.08 0.2 0  2.12 0.2 0  2.16 0.2 0  2.2 0.2 0  2.24 0.2 0  2.28 0.2 0  2.32 0.2 0  2.36 0.2 0  2.4 0.2 0  0.0400582 0.239823 0  0 0.24 0  0.0801953 0.239475 0  0.120857 0.238513 0  0.164645 0.235355 0  0.279119 0.238502 0  0.235355 0.235355 0  0.319759 0.239451 0  0.359873 0.239774 0  0.399905 0.239898 0  0.439925 0.239951 0  0.479941 0.239976 0  0.519954 0.239988 0  0.559964 0.239994 0  0.5999719999999999 0.239997 0  0.639977 0.239999 0  0.679982 0.24 0  0.719985 0.24 0  0.759987 0.24 0  0.79999 0.24 0  0.839992 0.24 0  0.8799940000000001 0.24 0  0.919996 0.239999 0  0.959998 0.239999 0  1 0.239999 0  1.04 0.239999 0  1.08 0.239999 0  1.12 0.24 0  1.16 0.24 0  1.2 0.24 0  1.24 0.24 0  1.28 0.24 0  1.32 0.24 0  1.36 0.24 0  1.4 0.24 0  1.44 0.24 0  1.48 0.24 0  1.52 0.24 0  1.56 0.24 0  1.6 0.24 0  1.64 0.24 0  1.68 0.24 0  1.72 0.24 0  1.76 0.24 0  1.8 0.24 0  1.84 0.24 0  1.88 0.24 0  1.92 0.24 0  1.96 0.24 0  2 0.24 0  2.04 0.24 0  2.08 0.24 0  2.12 0.24 0  2.16 0.24 0  2.2 0.24 0  2.24 0.24 0  2.28 0.24 0  2.32 0.24 0  2.36 0.24 0  2.4 0.24 0  0.0401261 0.279816 0  0 0.28 0  0.0803376 0.279565 0  0.120778 0.27922 0  0.161485 0.279141 0  0.2 0.25 0  0.199996 0.282186 0  0.238503 0.279135 0  0.279195 0.279202 0  0.319616 0.279528 0  0.359799 0.279745 0  0.39988 0.279865 0  0.43992 0.279929 0  0.479944 0.279962 0  0.519958 0.27998 0  0.559968 0.27999 0  0.599976 0.279995 0  0.639981 0.279998 0  0.679984 0.279999 0  0.719987 0.28 0  0.759989 0.28 0  0.799991 0.28 0  0.839993 0.28 0  0.879995 0.28 0  0.919997 0.279999 0  0.959998 0.279999 0  1 0.279999 0  1.04 0.279999 0  1.08 0.28 0  1.12 0.28 0  1.16 0.28 0  1.2 0.28 0  1.24 0.28 0  1.28 0.28 0  1.32 0.28 0  1.36 0.28 0  1.4 0.28 0  1.44 0.28 0  1.48 0.28 0  1.52 0.28 0  1.56 0.28 0  1.6 0.28 0  1.64 0.28 0  1.68 0.28 0  1.72 0.28 0  1.76 0.28 0  1.8 0.28 0  1.84 0.28 0  1.88 0.28 0  1.92 0.28 0  1.96 0.28 0  2 0.28 0  2.04 0.28 0  2.08 0.28 0  2.12 0.28 0  2.16 0.28 0  2.2 0.28 0  2.24 0.28 0  2.28 0.28 0  2.32 0.28 0  2.36 0.28 0  2.4 0.28 0  0.0401086 0.319877 0  0 0.32 0  0.08025060000000001 0.319748 0  0.120433 0.319661 0  0.160522 0.319802 0  0.199995 0.320467 0  0.239464 0.319795 0  0.279543 0.319643 0  0.31971 0.319714 0  0.359828 0.319813 0  0.399895 0.319889 0  0.439933 0.319937 0  0.479955 0.319965 0  0.519968 0.319981 0  0.559976 0.31999 0  0.599982 0.319995 0  0.6399860000000001 0.319998 0  0.679989 0.319999 0  0.719991 0.32 0  0.759992 0.32 0  0.799994 0.32 0  0.839995 0.32 0  0.879996 0.32 0  0.919998 0.32 0  0.959999 0.32 0  1 0.32 0  1.04 0.32 0  1.08 0.32 0  1.12 0.32 0  1.16 0.32 0  1.2 0.32 0  1.24 0.32 0  1.28 0.32 0  1.32 0.32 0  1.36 0.32 0  1.4 0.32 0  1.44 0.32 0  1.48 0.32 0  1.52 0.32 0  1.56 0.32 0  1.6 0.32 0  1.64 0.32 0  1.68 0.32 0  1.72 0.32 0  1.76 0.32 0  1.8 0.32 0  1.84 0.32 0  1.88 0.32 0  1.92 0.32 0  1.96 0.32 0  2 0.32 0  2.04 0.32 0  2.08 0.32 0  2.12 0.32 0  2.16 0.32 0  2.2 0.32 0  2.24 0.32 0  2.28 0.32 0  2.32 0.32 0  2.36 0.32 0  2.4 0.32 0  0.0400579 0.359942 0  0 0.36 0  0.0801229 0.359891 0  0.120183 0.359873 0  0.160175 0.35994 0  0.199997 0.360086 0  0.239816 0.359936 0  0.279804 0.359862 0  0.319855 0.359871 0  0.359906 0.359906 0  0.399941 0.35994 0  0.439962 0.359964 0  0.479975 0.359979 0  0.5199820000000001 0.359989 0  0.559987 0.359994 0  0.59999 0.359997 0  0.639993 0.359998 0  0.679994 0.359999 0  0.7199950000000001 0.36 0  0.759996 0.36 0  0.799997 0.36 0  0.839997 0.36 0  0.8799979999999999 0.36 0  0
[...]
<PointData  Scalars="f_10391-2"> 
<DataArray  type="Float64"  Name="f_10391-2"  format="ascii">1.7609054320226521e-04  1.7576575710387239e-04  1.8905683390995571e-04  1.8966174530579485e-04  1.6594545104326637e-04  1.8032331959358847e-04  1.4187280175673590e-04  1.5430080620541046e-04  1.0844695680590023e-04  1.1639059937213164e-04  7.5533779268824663e-05  7.9656543878377649e-05  4.9045691886239147e-05  5.0892607551574832e-05  3.0306820629575846e-05  3.1077615080048432e-05  1.8012168984779575e-05  1.8331606489711172e-05  1.0331014047443171e-05  1.0463034919817810e-05  5.7182092692435281e-06  5.7696368950615466e-06  3.0509719951188076e-06  3.0675906198727912e-06  1.5673501330028419e-06  1.5699695961487799e-06  7.7450803334677717e-07  7.7255745377147555e-07  3.6787524167611391e-07  3.6523180334634735e-07  1.6786074442400454e-07  1.6577516079569755e-07  7.3549120259327466e-08  7.2202476659669597e-08  3.0932377292933480e-08  3.0163497107567764e-08  1.2482425555673306e-08  1.2080587719388290e-08  4.8314640204512187e-09  4.6361859559401799e-09  1.7930604004948502e-09  1.7040366141858880e-09  6.3779590117637496e-10  5.9953605320854794e-10  2.1735571949978031e-10  2.0178396314401969e-10  7.0938762340714388e-11  6.4925925044459131e-11  2.2162959842499141e-11  1.9957736252728095e-11  6.6253404063671629e-12  5.8557890483117974e-12  1.8941232042247420e-12  1.6385805465686088e-12  5.1760761415390279e-13  4.3680496700751769e-13  1.3512584614474189e-13  1.1079130324919643e-13  3.3678249403474132e-14  2.6697730560965248e-14  8.0080836920848267e-15  6.1009243285399097e-15  1.8152050429084484e-15  1.3190333236132944e-15  3.9186065121852647e-16  2.6897956600618889e-16  8.0473666385120654e-17  5.1517375798620133e-17  1.5699410350116456e-17  9.2110992732939049e-18  2.9043432421633858e-18  1.5230301301518118e-18  5.0831813027205299e-19  2.2922871238327267e-19  8.3903144171724384e-20  3.0466170328492893e-20  1.3003459612234014e-20  3.3270759728703331e-21  1.8800716273040393e-21  2.2756241861736233e-22  2.5107102302527594e-22  -1.4028598250710298e-23  3.0458672544518357e-23  -9.2566868749171255e-24  3.2540452287334567e-24  -2.2520819330549199e-24  2.8521810221651803e-25  -4.1065742567543455e-25  1.6013072248239064e-26  -6.1959078544700276e-26  -5.2689759586008109e-28  -7.8106896897808613e-27  -3.1381066726539385e-28  -7.7920104378326174e-28  -5.2381566253522775e-29  -4.7354324120952014e-29  -5.2345155405288622e-30  2.4355610714353063e-30  -1.3013695300521390e-31  1.3485871336454068e-30  7.7389898934580125e-32  2.5654032815305724e-31  2.1032901408320303e-32  3.2734296204674402e-32  3.4166354165774132e-33  2.5374701959359610e-33  3.8330407190384877e-34  -6.2712113166964986e-35  2.1478098224831806e-35  -6.6706108740629851e-35  -2.7149761326021797e-36  -1.4645039134178351e-35  -1.0852738569084039e-36  -2.1334684873161263e-36  -2.0285203626440030e-37  -2.0966739286394042e-37  -2.6095514239514026e-38  -6.3429398193387754e-39  -2.0935247776760409e-39  2.8394376097940619e-39  7.1316269079463320e-41  1.5863200291588298e-39  2.2155025631342352e-04  2.2003803468605899e-04  2.1699225780241814e-04  1.8780217000482311e-04  1.3858639532819206e-04  9.0977104147236686e-05  5.5750156670449088e-05  3.3144025442874783e-05  1.9301606684042075e-05  1.0952420581747404e-05  6.0185175738642160e-06  3.1902304053362937e-06  1.6275255499568344e-06  7.9813606916697773e-07  3.7595215831293793e-07  1.6999544661268292e-07  7.3754148726611855e-08  3.0688172203431187e-08  1.2240027267782868e-08  4.6773899346315696e-09  1.7114945726903561e-09  5.9933650052425150e-10  2.0072726169919874e-10  6.4252512065219560e-11  1.9642213507609168e-11  5.7304594164035290e-12  1.5940940459696027e-12  4.2240910478570599e-13  1.0650934907852270e-13  2.5524659173782973e-14  5.8059043723326072e-15  1.2515901014917633e-15  2.5526847941170287e-16  4.9164527951092962e-17  8.9235819434180845e-18  1.5232958798475985e-18  2.4418971466219061e-19  3.6762997263440137e-20  5.2200515679329976e-21  7.0852385923721884e-22  9.4763445586067913e-23  1.3139210922083155e-23  1.9867995278472108e-24  3.2987401924436888e-25  5.7371974625699771e-26  9.8302764544758189e-27  1.5839059606779491e-27  2.3220167014202228e-28  2.9940447889502642e-29  3.1933502724187322e-30  2.3242729874567869e-31  -2.4171954153730400e-33  -4.8045580883594725e-33  -1.0770789339398882e-33  -1.6029624876061416e-34  -1.6625779954427867e-35  -7.2983283364686143e-37  1.6484230561716946e-37  5.4691451784058810e-38  9.9003285896925428e-39  2.4390039486621388e-39  2.5614498814579087e-04  2.5336531490365147e-04  2.5524269908629312e-04  2.2641616204836540e-04  1.6779570529362232e-04  1.0454657002233020e-04  6.0190110782606258e-05  3.4843081237446618e-05  2.0228876218914560e-05  1.1498216531890738e-05  6.3224280839817088e-06  3.3473663512259108e-06  1.7035644305080883e-06  8.3282274188339830e-07  3.9092093153836715e-07  1.7612948855479072e-07  7.6137868148689448e-08  3.1564413476203815e-08  1.2543652397307854e-08  4.7754945779140000e-09  1.7408629298566630e-09  6.0724640608620463e-10  2.0255391286475893e-10  6.4565090721393905e-11  1.9650815980308624e-11  5.7061958000805888e-12  1.5795575328552740e-12  4.1638595590056561e-13  1.0441484399596747e-13  2.4877772871862951e-14  5.6242163777977697e-15  1.2046251242914796e-15  2.4401791660205373e-16  4.6654225390853185e-17  8.3989934353180194e-18  1.4197176944099050e-18  2.2455676829882867e-19  3.3092847620274795e-20  4.5178457892451341e-21  5.6641257516122923e-22  6.4154541796595933e-23  6.3000655755053277e-24  4.6031322289025790e-25  -1.0730352488857499e-28  -1.0390259857431924e-26  -3.2442333030763285e-27  -7.7030139652307103e-28  -1.6104879585447855e-28  -3.0529258689482672e-29  -5.2571863852273340e-30  -8.1499117482486787e-31  -1.1142804496358470e-31  -1.2826212566712162e-32  -1.0827182040245631e-33  -2.1491889051479740e-35  1.5628601272257211e-35  4.2054639075010649e-36  7.0667177258069864e-37  8.6213410870005612e-38  6.4946307542915796e-39  -4.2128411638999111e-40  2.7966496368177766e-04  2.7740015647748572e-04  2.7878821659997822e-04  2.5595867796539344e-04  2.0450536976913017e-04  1.1140658213138060e-04  5.5364147915307410e-05  3.3766025938231274e-05  2.0390253699164412e-05  1.1817340882939576e-05  6.5467987022612126e-06  3.4716169715476565e-06  1.7647028714969389e-06  8.6063522323727811e-07  4.0281498714644689e-07  1.8092454796393780e-07  7.7960909662684160e-08  3.2215840183313571e-08  1.2759996008852004e-08  4.8413637739863703e-09  1.7585970503647405e-09  6.1115184841709950e-10  2.0305298537954536e-10  6.4449266342178677e-11  1.9526276825784517e-11  5.6419659964687055e-12  1.5533340545775346e-12  4.0703693738287170e-13  1.0139749276654965e-13  2.3981236436598514e-14  5.3766567831209687e-15  1.1407481779710781e-15  2.2856246616512888e-16  4.3138880252052684e-17  7.6458422298350462e-18  1.2674295284104374e-18  1.9543372985286000e-19  2.7813514291987872e-20  3.6089868366516302e-21  4.1786888948668933e-22  4.1257534826053699e-23  3.0458673664484147e-24  6.1578475071377141e-26  -3.2380047641717581e-26  -8.0764112335579428e-27  -1.2372529242447309e-27  -1.2101019690438336e-28  2.3350947516795293e-30  5.1589903345961563e-30  1.7492453194621302e-30  4.3666729303372043e-31  9.2371503694544424e-32  1.7207414364139012e-32  2.8470935497554718e-33  4.1457879462909022e-34  5.1386363198528684e-35  4.9080153585165606e-36  2.1304516039437742e-37  -4.5586531832626411e-38  -1.5993135122789642e-38  -5.8978971607184857e-39  2.8922512236760319e-04  2.8706236507658944e-04  2.8756646883278878e-04  2.6991069828689044e-04  2.4641184772967718e-04  3.0678764280166423e-05  4.0488786009582415e-05  2.0011441768188707e-05  1.1880071548606441e-05  6.6263412678256202e-06  3.5174251895430656e-06  1.7862545310385115e-06  8.6964952864067231e-07  4.0620394859968630e-07  1.8204927001155569e-07  7.8262493732418886e-08  3.2259363788462053e-08  1.2743186550343949e-08  4.8210432263299310e-09  1.7457285279614800e-09  6.0459585007191672e-10  2.0011432614346395e-10  6.3248174709524336e-11  1.9072996058733526e-11  5.4823341876809834e-12  1.5005960265644510e-12  3.9064292936305846e-13  9.6593603644680491e-14  2.2653102863620688e-14  5.0300689506469664e-15  1.0553824589709388e-15  2.0872619198540844e-16  3.8793925198741999e-17  6.7498425821052556e-18  1.0938055821398961e-18  1.6390881939742257e-19  2.2474431919802148e-20  2.7721324857481212e-21  2.9825637346076117e-22  2.6155571183604123e-23  1.4985038261338543e-24  -2.5895949447019795e-26  -2.0408261437903521e-26  -2.5281047789940976e-27  4.0356866886465898e-29  9.5926376830686772e-29  2.8013757715442409e-29  5.6858064210465914e-30  9.0353362881841413e-31  1.0411512566733410e-31  3.3422080336580154e-33  -2.5940684452253348e-33  -1.0202227202573006e-33  -2.6145363924137742e-34  -5.4635983459195954e-35  -9.8310873664271671e-36  -1.5391640359995162e-36  -2.0588373364813626e-37  -2.2228971022502751e-38  -2.7521085847560263e-39  2.8227921080474283e-04  2.7898625648158310e-04  2.7956000483958700e-04  2.5171226520633348e-04  2.0032632025389970e-04  3.3875852792973239e-05  5.5911032903495352e-05  2.0524701639502489e-05  1.1881535936509797e-05  6.5643625733796892e-06  3.4705572818635164e-06  1.7589981655636365e-06  8.5532895472138269e-07  3.9910129560570681e-07  1.7866341751973708e-07  7.6707950662601044e-08  3.1568657800668272e-08  1.2446764685767340e-08  4.6984540692840386e-09  1.6967985644038845e-09  5.8583854185393626e-10  1.9321451065738052e-10  6.0818973351909359e-11  1.8254295721170007e-11  5.2187852574357486e-12  1.4196691778310332e-12  3.6697366499203785e-13  9.0007755945994570e-14  2.0912332035971160e-14  4.5935934645759967e-15  9.5172829953968082e-16  1.8545336837778845e-16  3.3864089723413127e-17  5.7671721318274074e-18  9.1010338986348102e-19  1.3184921370329189e-19  1.7285841227476853e-20  2.0014296186683603e-21  1.9502802048916376e-22  1.4106580557648337e-23  3.6872668379724617e-25  -8.8258535001087765e-26  -1.6408170480144491e-26  -8.7017244674918250e-28  2.4010755260916664e-28  8.2355254423274167e-29  1.4399706976703565e-29  1.4402632685612815e-30  -4.8178805227365298e-32  -6.4428359685323440e-32  -1.9097933389695351e-32  -4.0149167864496339e-33  -6.6226584117594469e-34  -8.0291989490289754e-35  -3.7286326185030277e-36  1.5428344306486098e-36  6.4618038394936054e-37  1.6404368608561143e-37  3.3898660683243541e-38  1.1341777060798064e-38  2.5647245643419761e-04  2.5239718197614158e-04  2.5509292485748823e-04  2.2451999235830632e-04  1.6677523326519018e-04  1.1350426615559794e-04  1.0315514947647656e-04  6.0807595557873175e-05  3.5192376527112384e-05  2.0415097808478053e-05  1.1568955295277211e-05  6.3345659720126234e-06  3.3379776832085739e-06  1.6901802824056786e-06  8.2181869622447693e-07  3.8350288442608658e-07  1.7166781298937830e-07  7.3675098405071194e-08  3.0297643745888246e-08  1.1930670941462333e-08  4.4957644237079281e-09  1.6199461141639073e-09  5.5771738898590311e-10  1.8330455984004330e-10  5.7461799915024782e-11  1.7163374953977718e-11  4.8789796904693414e-12  1.3184376092695724e-12  3.3817826837897929e-13  8.2201366527653345e-14  1.8898980362555213e-14  4.1004887515927898e-15  8.3727586988633661e-16  1.6033549538941912e-16  2.8665940185058414e-17  4.7560580410682260e-18  7.2602005656556972e-19  1.0065799933201741e-19  1.2406823111007977e-20  1.3056027745260983e-21  1.0643415994752262e-22  4.4376750138095465e-24  -4.5004718339053663e-25  -1.2300916524739547e-25  -1.2378184305756940e-26  2.1776412286012777e-28  3.3153159001569409e-28  6.9274013139490306e-29  7.8611747952102332e-30  7.3161766920822265e-32  -2.0521110382896170e-31  -5.7939960137969648e-32  -9.9710096933927470e-33  -1.0361775867758329e-33  2.4449488830955147e-35  4.4555028452290741e-35  1.3647811493232082e-35  2.9074520187142869e-36  4.7983133520599573e-37  5.7444982298000046e-38  2.4396617528773210e-39  -2.2087662005478975e-39  2.1752917401203235e-04  2.1549051430824187e-04  2.1460091612142185e-04  1.8856366165612360e-04  1.4052233312577259e-04  9.1513915568489475e-05  5.6277113494680617e-05  3.3385108501692616e-05  1.9412650288179970e-05  1.0980422478106740e-05  6.0057352404930874e-06  3.1649027604136772e-06  1.6037462258374493e-06  7.8049521460436805e-07  3.6449700538496356e-07  1.6322797847419465e-07  7.0048557769680193e-08  2.8788668565405011e-08  1.1323254342370049e-08  4.2593381761755140e-09  1.5310056633160713e-09  5.2545526534188705e-10  1.7203413479975161e-10  5.3674004626298287e-11  1.5941388467661014e-11  4.5013925706637035e-12  1.2067970936877912e-12  3.0666389226534404e-13  7.3724458913404201e-14  1.6730099842148853e-14  3.5737691180753425e-15  7.1613859067418813e-16  1.3402086615182512e-16  2.3283391154011404e-17  3.7233710628639473e-18  5.4111894906517229e-19  6.9977844569428455e-20  7.7377992706832123e-21  6.6466959210091591e-22  2.9431529161864881e-23  -3.1384143139740539e-24  -9.4108498616524644e-25  -1.1338386990621308e-25  -3.1788884275932477e-27  1.8489268660945197e-27  4.9045470406049556e-28  7.0150792536069454e-29  4.8998155798397996e-30  -5.0496722398512864e-31  -2.3766323238579288e-31  -4.4415989378982014e-32  -4.6346261949366217e-33  8.0845147386618728e-35  1.6537723211570242e-34  4.4696605280806772e-35  7.7059159440711317e-36  8.1428067305910075e-37  -1.5530595007694252e-38  -3.3836545483194315e-38  -1.0656222076330134e-38  -4.3519130678425126e-39  1.8435021579908179e-04  1.8536485810183303e-04  1.7747689195225948e-04  1.5551008222061276e-04  1.1896637111362903e-04  8.0975339281102036e-05  5.1477114677723632e-05  3.1272124922701179e-05  1.8365330034221982e-05  1.0428795925006833e-05  5.7142065525649552e-06  3.0146805109183857e-06  1.5288546017393726e-06  7.4440937947936406e-07  3.4765972282849005e-07  1.5561770105882383e-07  6.6711250445931058e-08  2.7370831171631497e-08  1.0739622579121795e-08  4.0268557591743212e-09  1.4416231551564204e-09  4.9233528416472777e-10  1.6022245631517800e-10  4.9631108907398851e-11  1.4614861783136654e-11  4.0852589188360493e-12  1.0821192333805543e-12  2.7107000751024089e-13  6.4060116562187339e-14  1.4239619802088418e-14  2.9660042635970165e-15  5.7604130223235582e-16  1.0360763217227341e-16  1.7088668266151788e-17  2.5451809923084688e-18  3.3325481046940746e-19  3.6284858934832589e-20  2.7958989954201408e-21  2.6189011114257429e-23  -3.9193252894727903e-23  -8.3039407514939933e-24  -9.5456891822431949e-25  -2.9528284069158796e-26  1.5001612510318563e-26  4.2028269451428922e-27  6.4774560263036970e-28  5.6990381986486851e-29  -1.2927569000324230e-30  -1.5970618447075635e-30  -3.4469658817492646e-31  -4.3808362875084011e-32  -2.1190459391383200e-33  5.8284021691402164e-34  1.9910007900101044e-34  3.4424053249325542e-35  3.2276107297130354e-36  -1.8111561706169578e-37  -1.5596121760160947e-37  -3.9788612725396102e-38  -6.7562051743465023e-39  -1.3460233268073355e-39  1.7220167016575294e-04  1.7550355836042032e-04  1.6348163750855272e-04  1.4272109046850533e-04  1.1051165465745556e-04  7.6616107995054129e-05  4.9323161745138023e-05  3.0219402510937439e-05  1.7817573712279878e-05  1.0131300479153759e-05  5.5506511867596630e-06  2.9254979030527468e-06  1.4811416290631429e-06  7.1947048026946883e-07  3.3497981917183236e-07  1.4936078865845796e-07  6.3725346270879953e-08  2.5995008821374680e-08  1.0129615781646264e-08  3.7671977063737807e-09  1.3357215245047302e-09  4.5100732437033683e-10  1.4482536651162388e-10  4.4161465696194034e-11  1.2764649932947225e-11  3.4899726289024643e-12  9.0024568603149679e-13  2.1838949625322797e-13  4.9618202736193588e-14  1.0499893905174034e-14  2.0533978533712635e-15  3.6676664806892057e-16  5.8674587614872064e-17  8.0987840896774155e-18  8.8020275320290215e-19  5.0561026331970867e-20  -7.0457849649559025e-21  -3.0382223301664682e-21  -6.2476334100862534e-22  -8.9582498143733078e-23  -8.2798296721567814e-24  -3.2495456940996790e-26  1.7555905426396886e-25  4.2600015891332407e-26  6.1909911746443029e-27  5.0956088361820173e-28  -1.9065664710744182e-29  -1.6035618790894168e-29  -3.3566337045340272e-30  -4.2739866491344881e-31  -2.3869556705720995e-32  4.3146410238219683e-33  1.6020702415463379e-33  2.8174256743294696e-34  2.8527998934975001e-35  -3.0261340915876289e-37  -8.6767038872737853e-37  -2.2072377829501672e-37  -3.3808839087484347e-38  -2.4349511617379503e-39  7.5917855810379552e-40  </DataArray> 
</PointData> 
</Piece>
</UnstructuredGrid>
</VTKFile>