<?xml version="1.0"?>
<VTKFile type="UnstructuredGrid"  version="0.1"  >
<UnstructuredGrid>
<Piece  NumberOfPoints="670" NumberOfCells="1192">
<Points>
<DataArray  type="Float64"  NumberOfComponents="3"  format="ascii">0 0 0  0.04 -1.31357e-10 0  0.0400579 0.0400582 0  0 0.04 0  0.08 -2.62713e-10 0  0.080123 0.0401093 0  0.12 -3.9407e-10 0  0.120183 0.040127 0  0.16 -5.25427e-10 0  0.160176 0.0400597 0  0.2 -6.56784e-10 0  0.199997 0.0399142 0  0.24 -7.8814e-10 0  0.239816 0.0400642 0  0.28 -9.19497e-10 0  0.279804 0.0401377 0  0.32 -1.05085e-09 0  0.319855 0.0401297 0  0.36 -1.18221e-09 0  0.359906 0.0400945 0  0.4 -1.31357e-09 0  0.399941 0.0400609 0  0.44 -1.44492e-09 0  0.439962 0.0400367 0  0.48 -1.57628e-09 0  0.479975 0.0400214 0  0.52 -1.70764e-09 0  0.519983 0.0400122 0  0.5600000000000001 -1.83899e-09 0  0.559987 0.0400069 0  0.6 -1.97035e-09 0  0.59999 0.040004 0  0.64 -2.10171e-09 0  0.639993 0.0400023 0  0.68 -2.23306e-09 0  0.679994 0.0400013 0  0.72 -2.36442e-09 0  0.7199950000000001 0.0400008 0  0.76 -2.49578e-09 0  0.759996 0.0400005 0  0.8 -2.62713e-09 0  0.799997 0.0400002 0  0.84 -2.75849e-09 0  0.839997 0.0400001 0  0.88 -2.88985e-09 0  0.8799979999999999 0.04 0  0.92 -3.0212e-09 0  0.919999 0.0399999 0  0.96 -3.15256e-09 0  0.959999 0.0399998 0  1 -3.28392e-09 0  1 0.0399998 0  1.04 -3.41527e-09 0  1.04 0.0399998 0  1.08 -3.54663e-09 0  1.08 0.0399998 0  1.12 -3.67799e-09 0  1.12 0.0399998 0  1.16 -3.80934e-09 0  1.16 0.0399999 0  1.2 -3.9407e-09 0  1.2 0.04 0  1.24 -4.07206e-09 0  1.24 0.04 0  1.28 -4.20341e-09 0  1.28 0.0400001 0  1.32 -4.33477e-09 0  1.32 0.0400001 0  1.36 -4.46613e-09 0  1.36 0.04 0  1.4 -4.59748e-09 0  1.4 0.04 0  1.44 -4.72884e-09 0  1.44 0.04 0  1.48 -4.8602e-09 0  1.48 0.04 0  1.52 -4.99156e-09 0  1.52 0.04 0  1.56 -5.12291e-09 0  1.56 0.04 0  1.6 -5.25427e-09 0  1.6 0.0400001 0  1.64 -5.38563e-09 0  1.64 0.0400001 0  1.68 -5.51698e-09 0  1.68 0.04 0  1.72 -5.64834e-09 0  1.72 0.04 0  1.76 -5.7797e-09 0  1.76 0.04 0  1.8 -5.91105e-09 0  1.8 0.04 0  1.84 -6.04241e-09 0  1.84 0.04 0  1.88 -6.17377e-09 0  1.88 0.0400001 0  1.92 -6.30512e-09 0  1.92 0.0400001 0  1.96 -6.43648e-09 0  1.96 0.0400001 0  2 -6.56784e-09 0  2 0.0400001 0  2.04 -6.69919e-09 0  2.04 0.0400001 0  2.08 -6.83055e-09 0  2.08 0.04 0  2.12 -6.96191e-09 0  2.12 0.04 0  2.16 -7.09326e-09 0  2.16 0.0400001 0  2.2 -7.22462e-09 0  2.2 0.04 0  2.24 -7.35598e-09 0  2.24 0.04 0  2.28 -7.48733e-09 0  2.28 0.0399999 0  2.32 -7.618690000000001e-09 0  2.32 0.04 0  2.36 -7.750049999999999e-09 0  2.36 0.04 0  2.4 -7.8814e-09 0  2.4 0.04 0  0.0401088 0.0801235 0  0 0.08 0  0.0802509 0.0802518 0  0.120434 0.0803392 0  0.160522 0.0801977 0  0.199995 0.0795328 0  0.239464 0.0802049 0  0.279544 0.08035689999999999 0  0.319711 0.0802867 0  0.359828 0.08018740000000001 0  0.399896 0.0801123 0  0.439933 0.0800646 0  0.479955 0.0800365 0  0.519968 0.08002049999999999 0  0.559976 0.0800116 0  0.599982 0.0800066 0  0.6399860000000001 0.0800039 0  0.679989 0.0800023 0  0.719991 0.0800014 0  0.759992 0.0800008 0  0.799994 0.0800004 0  0.839995 0.08000019999999999 0  0.879996 0.0799999 0  0.919997 0.07999970000000001 0  0.959999 0.0799996 0  1 0.0799995 0  1.04 0.0799995 0  1.08 0.0799996 0  1.12 0.07999970000000001 0  1.16 0.0799998 0  1.2 0.08 0  1.24 0.0800001 0  1.28 0.0800001 0  1.32 0.0800001 0  1.36 0.08 0  1.4 0.0799999 0  1.44 0.0799999 0  1.48 0.0799999 0  1.52 0.0799999 0  1.56 0.08 0  1.6 0.0800001 0  1.64 0.0800001 0  1.68 0.08 0  1.72 0.0799999 0  1.76 0.0799999 0  1.8 0.0799999 0  1.84 0.0799999 0  1.88 0.08 0  1.92 0.0800001 0  1.96 0.0800001 0  2 0.0800001 0  2.04 0.08 0  2.08 0.0799999 0  2.12 0.0799999 0  2.16 0.08 0  2.2 0.08 0  2.24 0.0799999 0  2.28 0.0799998 0  2.32 0.0799999 0  2.36 0.0799999 0  2.4 0.08 0  0.0401262 0.120184 0  0 0.12 0  0.0803378 0.120435 0  0.120779 0.12078 0  0.161485 0.120859 0  0.199996 0.117814 0  0.238503 0.120866 0  0.279195 0.120798 0  0.319616 0.120473 0  0.359799 0.120256 0  0.39988 0.120136 0  0.439921 0.120073 0  0.479944 0.120039 0  0.519958 0.120022 0  0.5599690000000001 0.120012 0  0.599976 0.120007 0  0.639981 0.120004 0  0.679985 0.120002 0  0.719987 0.120002 0  0.7599900000000001 0.120001 0  0.799991 0.12 0  0.839993 0.12 0  0.879995 0.12 0  0.919996 0.12 0  0.959998 0.119999 0  1 0.119999 0  1.04 0.119999 0  1.08 0.119999 0  1.12 0.12 0  1.16 0.12 0  1.2 0.12 0  1.24 0.12 0  1.28 0.12 0  1.32 0.12 0  1.36 0.12 0  1.4 0.12 0  1.44 0.12 0  1.48 0.12 0  1.52 0.12 0  1.56 0.12 0  1.6 0.12 0  1.64 0.12 0  1.68 0.12 0  1.72 0.12 0  1.76 0.12 0  1.8 0.12 0  1.84 0.12 0  1.88 0.12 0  1.92 0.12 0  1.96 0.12 0  2 0.12 0  2.04 0.12 0  2.08 0.12 0  2.12 0.12 0  2.16 0.12 0  2.2 0.12 0  2.24 0.12 0  2.28 0.12 0  2.32 0.12 0  2.36 0.12 0  2.4 0.12 0  0.0400582 0.160177 0  0 0.16 0  0.0801954 0.160525 0  0.120857 0.161488 0  0.164645 0.164645 0  0.2 0.15 0  0.235355 0.164645 0  0.279119 0.161498 0  0.319759 0.16055 0  0.359874 0.160228 0  0.399906 0.160104 0  0.439925 0.160051 0  0.479941 0.160027 0  0.519954 0.160014 0  0.559964 0.160008 0  0.5999719999999999 0.160005 0  0.639978 0.160003 0  0.679982 0.160002 0  0.719985 0.160001 0  0.759988 0.160001 0  0.79999 0.16 0  0.839992 0.16 0  0.8799940000000001 0.16 0  0.919996 0.159999 0  0.959998 0.159999 0  1 0.159999 0  1.04 0.159999 0  1.08 0.159999 0  1.12 0.16 0  1.16 0.16 0  1.2 0.16 0  1.24 0.16 0  1.28 0.16 0  1.32 0.16 0  1.36 0.16 0  1.4 0.16 0  1.44 0.16 0  1.48 0.16 0  1.52 0.16 0  1.56 0.16 0  1.6 0.16 0  1.64 0.16 0  1.68 0.16 0  1.72 0.16 0  1.76 0.16 0  1.8 0.16 0  1.84 0.16 0  1.88 0.16 0  1.92 0.16 0  1.96 0.16 0  2 0.16 0  2.04 0.16 0  2.08 0.16 0  2.12 0.16 0  2.16 0.16 0  2.2 0.16 0  2.24 0.16 0  2.28 0.16 0  2.32 0.16 0  2.36 0.16 0  2.4 0.16 0  0.0399111 0.2 0  0 0.2 0  0.0795281 0.2 0  0.117811 0.2 0  0.15 0.2 0  0.282167 0.2 0  0.25 0.2 0  0.320429 0.2 0  0.36003 0.200001 0  0.399944 0.200001 0  0.439934 0.200001 0  0.479942 0.200001 0  0.519953 0.200001 0  0.559963 0.200001 0  0.59997 0.200001 0  0.639976 0.200001 0  0.6799809999999999 0.200001 0  0.719984 0.200001 0  0.759987 0.200001 0  0.799989 0.2 0  0.839991 0.2 0  0.879993 0.2 0  0.919996 0.199999 0  0.959998 0.199999 0  1 0.199999 0  1.04 0.199999 0  1.08 0.199999 0  1.12 0.2 0  1.16 0.2 0  1.2 0.2 0  1.24 0.2 0  1.28 0.2 0  1.32 0.2 0  1.36 0.2 0  1.4 0.2 0  1.44 0.2 0  1.48 0.2 0  1.52 0.2 0  1.56 0.2 0  1.6 0.2 0  1.64 0.2 0  1.68 0.2 0  1.72 0.2 0  1.76 0.2 0  1.8 0.2 0  1.84 0.2 0  1.88 0.2 0  1.92 0.2 0  1.96 0.2 0  2 0.2 0  2.04 0.2 0  2.08 0.2 0  2.12 0.2 0  2.16 0.2 0  2.2 0.2 0  2.24 0.2 0  2.28 0.2 0  2.32 0.2 0  2.36 0.2 0  2.4 0.2 0  0.0400582 0.239823 0  0 0.24 0  0.0801953 0.239475 0  0.120857 0.238513 0  0.164645 0.235355 0  0.279119 0.238502 0  0.235355 0.235355 0  0.319759 0.239451 0  0.359873 0.239774 0  0.399905 0.239898 0  0.439925 0.239951 0  0.479941 0.239976 0  0.519954 0.239988 0  0.559964 0.239994 0  0.5999719999999999 0.239997 0  0.639977 0.239999 0  0.679982 0.24 0  0.719985 0.24 0  0.759987 0.24 0  0.79999 0.24 0  0.839992 0.24 0  0.8799940000000001 0.24 0  0.919996 0.239999 0  0.959998 0.239999 0  1 0.239999 0  1.04 0.239999 0  1.08 0.239999 0  1.12 0.24 0  1.16 0.24 0  1.2 0.24 0  1.24 0.24 0  1.28 0.24 0  1.32 0.24 0  1.36 0.24 0  1.4 0.24 0  1.44 0.24 0  1.48 0.24 0  1.52 0.24 0  1.56 0.24 0  1.6 0.24 0  1.64 0.24 0  1.68 0.24 0  1.72 0.24 0  1.76 0.24 0  1.8 0.24 0  1.84 0.24 0  1.88 0.24 0  1.92 0.24 0  1.96 0.24 0  2 0.24 0  2.04 0.24 0  2.08 0.24 0  2.12 0.24 0  2.16 0.24 0  2.2 0.24 0  2.24 0.24 0  2.28 0.24 0  2.32 0.24 0  2.36 0.24 0  2.4 0.24 0  0.0401261 0.279816 0  0 0.28 0  0.0803376 0.279565 0  0.120778 0.27922 0  0.161485 0.279141 0  0.2 0.25 0  0.199996 0.282186 0  0.238503 0.279135 0  0.279195 0.279202 0  0.319616 0.279528 0  0.359799 0.279745 0  0.39988 0.279865 0  0.43992 0.279929 0  0.479944 0.279962 0  0.519958 0.27998 0  0.559968 0.27999 0  0.599976 0.279995 0  0.639981 0.279998 0  0.679984 0.279999 0  0.719987 0.28 0  0.759989 0.28 0  0.799991 0.28 0  0.839993 0.28 0  0.879995 0.28 0  0.919997 0.279999 0  0.959998 0.279999 0  1 0.279999 0  1.04 0.279999 0  1.08 0.28 0  1.12 0.28 0  1.16 0.28 0  1.2 0.28 0  1.24 0.28 0  1.28 0.28 0  1.32 0.28 0  1.36 0.28 0  1.4 0.28 0  1.44 0.28 0  1.48 0.28 0  1.52 0.28 0  1.56 0.28 0  1.6 0.28 0  1.64 0.28 0  1.68 0.28 0  1.72 0.28 0  1.76 0.28 0  1.8 0.28 0  1.84 0.28 0  1.88 0.28 0  1.92 0.28 0  1.96 0.28 0  2 0.28 0  2.04 0.28 0  2.08 0.28 0  2.12 0.28 0  2.16 0.28 0  2.2 0.28 0  2.24 0.28 0  2.28 0.28 0  2.32 0.28 0  2.36 0.28 0  2.4 0.28 0  0.0401086 0.319877 0  0 0.32 0  0.08025060000000001 0.319748 0  0.120433 0.319661 0  0.160522 0.319802 0  0.199995 0.320467 0  0.239464 0.319795 0  0.279543 0.319643 0  0.31971 0.319714 0  0.359828 0.319813 0  0.399895 0.319889 0  0.439933 0.319937 0  0.479955 0.319965 0  0.519968 0.319981 0  0.559976 0.31999 0  0.599982 0.319995 0  0.6399860000000001 0.319998 0  0.679989 0.319999 0  0.719991 0.32 0  0.759992 0.32 0  0.799994 0.32 0  0.839995 0.32 0  0.879996 0.32 0  0.919998 0.32 0  0.959999 0.32 0  1 0.32 0  1.04 0.32 0  1.08 0.32 0  1.12 0.32 0  1.16 0.32 0  1.2 0.32 0  1.24 0.32 0  1.28 0.32 0  1.32 0.32 0  1.36 0.32 0  1.4 0.32 0  1.44 0.32 0  1.48 0.32 0  1.52 0.32 0  1.56 0.32 0  1.6 0.32 0  1.64 0.32 0  1.68 0.32 0  1.72 0.32 0  1.76 0.32 0  1.8 0.32 0  1.84 0.32 0  1.88 0.32 0  1.92 0.32 0  1.96 0.32 0  2 0.32 0  2.04 0.32 0  2.08 0.32 0  2.12 0.32 0  2.16 0.32 0  2.2 0.32 0  2.24 0.32 0  2.28 0.32 0  2.32 0.32 0  2.36 0.32 0  2.4 0.32 0  0.0400579 0.359942 0  0 0.36 0  0.0801229 0.359891 0  0.120183 0.359873 0  0.160175 0.35994 0  0.199997 0.360086 0  0.239816 0.359936 0  0.279804 0.359862 0  0.319855 0.359871 0  0.359906 0.359906 0  0.399941 0.35994 0  0.439962 0.359964 0  0.479975 0.359979 0  0.5199820000000001 0.359989 0  0.559987 0.359994 0  0.59999 0.359997 0  0.639993 0.359998 0  0.679994 0.359999 0  0.7199950000000001 0.36 0  0.759996 0.36 0  0.799997 0.36 0  0.839997 0.36 0  0.8799979999999999 0.36 0  0
[...]
<PointData  Scalars="f_10391-2"> 
<DataArray  type="Float64"  Name="f_10391-2"  format="ascii">2.6785167918737295e-04  2.6705845894406946e-04  2.8296699192496464e-04  2.8394557238146679e-04  2.5364582200665224e-04  2.7112511127416815e-04  2.2096090803384213e-04  2.3624289135702465e-04  1.7491515245324668e-04  1.8476426331061335e-04  1.2823756567042395e-04  1.3340567424514299e-04  8.8982576368004711e-05  9.1332515655545972e-05  5.9516523507425829e-05  6.0521871854161835e-05  3.8711213236590328e-05  3.9147220431142181e-05  2.4544437156972857e-05  2.4738587843604939e-05  1.5164606040516419e-05  1.5248936770261314e-05  9.1197936764212988e-06  9.1519040209322514e-06  5.3326524418698338e-06  5.3404760846213986e-06  3.0292479218760733e-06  3.0270931942141162e-06  1.6706443134944994e-06  1.6655671553827561e-06  8.9410244769174981e-07  8.8912521724413563e-07  4.6418242102931042e-07  4.6031767371846029e-07  2.3370106307105683e-07  2.3106061403185565e-07  1.1407664960934425e-07  1.1241752523255077e-07  5.3976050828128710e-08  5.2999354614352776e-08  2.4750523278040568e-08  2.4206360591800318e-08  1.0996593100964956e-08  1.0708136864395767e-08  4.7330033792653303e-09  4.5866734619393969e-09  1.9730193685418822e-09  1.9018554099428545e-09  7.9643155638539426e-10  7.6321633705544248e-10  3.1123984262885662e-10  2.9632167566296131e-10  1.1772521448325792e-10  1.1127910795450317e-10  4.3089149492775217e-11  4.0406324175123981e-11  1.5257454138245301e-11  1.4181479572291513e-11  5.2251492719859063e-12  4.8091739801691264e-12  1.7302121430464855e-12  1.5751609110666818e-12  5.5380891546419336e-13  4.9808131330758070e-13  1.7129753114666942e-13  1.5198336636844854e-13  5.1184279358143800e-14  4.4729469479757861e-14  1.4769737090404842e-14  1.2689735977915193e-14  4.1144142664481094e-15  3.4682028664773240e-15  1.1060642324913863e-15  9.1253156391602798e-16  2.8682407641366187e-16  2.3096104285799737e-16  7.1717440375127127e-17  5.6179586687704905e-17  1.7282258629467203e-17  1.3118921967510553e-17  4.0115572068423381e-18  2.9372000574367203e-18  8.9640200216811514e-19  6.2949580854536760e-19  1.9269642496270448e-19  1.2888595075270268e-19  3.9818315594440742e-20  2.5144489170304945e-20  7.9017990335123016e-21  4.6579076746292658e-21  1.5042419963265670e-21  8.1532565831028273e-22  2.7432487885351230e-22  1.3388592296935657e-22  4.7844390165025839e-23  2.0391040097131989e-23  7.9629853578879400e-24  2.8232061981028744e-24  1.2611837761262261e-24  3.4105410567520356e-25  1.8936769508493248e-25  3.2177540001123916e-26  2.6816748629839800e-26  1.2596478581564215e-27  3.5550229923993186e-27  -3.8536335662298841e-28  4.3622785863291650e-28  -1.3700356583776861e-28  4.8642170145486951e-29  -2.9472516335021867e-29  4.7649949719641892e-30  -5.0960348606041339e-30  3.8027788795791573e-31  -7.5196082321868808e-31  1.9091322656531414e-32  -9.5182091643529313e-32  -5.8195110166092680e-34  -9.9592450918199216e-33  -2.7477098544217640e-34  -7.5454356467537903e-34  -6.7481995516594749e-35  -1.7224477118587728e-35  3.2108589123265769e-04  3.1935212066826560e-04  3.1475677957852355e-04  2.7664171822609719e-04  2.1182189677558218e-04  1.4731873111079846e-04  9.7277025418346434e-05  6.3049337700769338e-05  4.0367213619697372e-05  2.5392782245241523e-05  1.5609880763671427e-05  9.3471204148923284e-06  5.4418462868064733e-06  3.0773007043064173e-06  1.6891571330622386e-06  8.9957855216325835e-07  4.6464745925433124e-07  2.3269202453249037e-07  1.1295030318917151e-07  5.3128063171143419e-08  2.4207869847028747e-08  1.0682863618923121e-08  4.5644717963784447e-09  1.8877472502051054e-09  7.5545867106630557e-10  2.9246886962125101e-10  1.0949993082449091e-10  3.9632905838750148e-11  1.3862845775861037e-11  4.6842369443053721e-12  1.5284187807773072e-12  4.8137011988817797e-13  1.4626935886569504e-13  4.2860404808237238e-14  1.2104973300937217e-14  3.2933282826925201e-15  8.6260082530912156e-16  2.1737350545861903e-16  5.2664682583235614e-17  1.2257894927369534e-17  2.7386380555840459e-18  5.8679555342303620e-19  1.2046425845072792e-19  2.3671166718710842e-20  4.4478718517013658e-21  7.9853888157280255e-22  1.3691365964870711e-22  2.2425073110146089e-23  3.5151215237887625e-24  5.2969887438386976e-25  7.7428991332597876e-26  1.1147149236885295e-26  1.6143837289555625e-27  2.4034737687856139e-28  3.7194788103103469e-29  5.9359447750445051e-30  9.5389516660052447e-31  1.4990545208999063e-31  2.2423826552775127e-32  3.1691746689014724e-33  7.7655471418107726e-34  3.6017178198073397e-04  3.5702562416554316e-04  3.5823796050644214e-04  3.2135241755158533e-04  2.4642242502526682e-04  1.6353101843328454e-04  1.0220826624257511e-04  6.4832834439596120e-05  4.1415243906502955e-05  2.6083967008922231e-05  1.6039074811267028e-05  9.5937377112246825e-06  5.5747997974944423e-06  3.1452419404135601e-06  1.7222132854729411e-06  9.1497048500660051e-07  4.7148978621710663e-07  2.3558384278466682e-07  1.1410530230761216e-07  5.3555200594726836e-08  2.4351818975396277e-08  1.0723693540082769e-08  4.5721362589012326e-09  1.8868390303397836e-09  7.5342023664111805e-10  2.9100243922363215e-10  1.0868932611372002e-10  3.9240475576843416e-11  1.3689199704548240e-11  4.6126143877055816e-12  1.5005956240846386e-12  4.7112763645714364e-13  1.4268267800986444e-13  4.1662798779842948e-14  1.1723108600815119e-14  3.1769505994383831e-15  8.2868455379241227e-16  2.0791981549889752e-16  5.0144402181731993e-17  1.1615358447909736e-17  2.5820071854410203e-18  5.5028776759951586e-19  1.1232532636116533e-19  2.1933889603405325e-20  4.0919950352859188e-21  7.2826359443373480e-22  1.2343092457330240e-22  1.9880963502617059e-23  3.0351365968459543e-24  4.3755572067240663e-25  5.9213264759241418e-26  7.4385532369246964e-27  8.4616612624440213e-28  8.1387080765058304e-29  4.9213179769270805e-30  -4.0334890596866445e-31  -2.3875311009142917e-31  -6.3455829437527518e-32  -1.3671649785086900e-32  -2.6827989177058541e-33  -9.2146290679763227e-34  3.8581951086936019e-04  3.8350915537168522e-04  3.8362796994257764e-04  3.5457092191149654e-04  2.9011022379647506e-04  1.7114499120855409e-04  9.4344804123476901e-05  6.2670022131657151e-05  4.1339796036918333e-05  2.6434165201918519e-05  1.6345348442016160e-05  9.7872453647761074e-06  5.6819550430540734e-06  3.2001738386467241e-06  1.7488656110241315e-06  9.2724900136183773e-07  4.7686527264429843e-07  2.3781152431361284e-07  1.1496561779007435e-07  5.3858958183886471e-08  2.4444171244083772e-08  1.0744229925057919e-08  4.5721499300701967e-09  1.8830893541459150e-09  7.5038170320751418e-10  2.8920477059238565e-10  1.0777267032067428e-10  3.8815770354582617e-11  1.3506245948910070e-11  4.5384741525671083e-12  1.4721299711448303e-12  4.6072848228528109e-13  1.3905801300132803e-13  4.0455241932946599e-14  1.1338134239074117e-14  3.0594158373143060e-15  7.9430393696420852e-16  1.9828176293027700e-16  4.7554759262641750e-17  1.0948450263359936e-17  2.4174010410837880e-18  5.1135210154417018e-19  1.0349980936561836e-19  2.0016928792063224e-20  3.6929747666469592e-21  6.4865577887020919e-22  1.0820509852425379e-22  1.7089107786551958e-23  2.5446104790584647e-24  3.5514761675242890e-25  4.6051516788967140e-26  5.4676921100681828e-27  5.7860680013328297e-28  5.1425781832476370e-29  3.1969617483281411e-30  -6.1304250698562197e-34  -3.4113415170021585e-32  -3.7117550113178207e-33  6.9943439133952634e-34  4.6455896194843046e-34  2.8337017857106550e-34  3.9634598359622957e-04  3.9426088541805106e-04  3.9311447569673544e-04  3.7058516347311530e-04  3.4137863026130786e-04  5.7790565945728243e-05  7.2475676736682697e-05  4.0604971939222925e-05  2.6466737761409246e-05  1.6453060729461448e-05  9.8608059449390352e-06  5.7216398738818084e-06  3.2192604547247584e-06  1.7572249379601098e-06  9.3056049451820256e-07  4.7797586517348403e-07  2.3806044805450574e-07  1.1493673108936805e-07  5.3772823539307930e-08  2.4370668524387977e-08  1.0695944190063702e-08  4.5443704937966507e-09  1.8684166299344241e-09  7.4316972360157047e-10  2.8585909369191517e-10  1.0629821107594781e-10  3.8196055661373970e-11  1.3257198298086249e-11  4.4426222136419277e-12  1.4367594822370284e-12  4.4820525338929718e-13  1.3480185120166528e-13  3.9066412930287201e-14  1.0902980985221982e-14  2.9285048813560583e-15  7.5649608818065767e-16  1.8780198173616105e-16  4.4767734878946348e-17  1.0237621433539498e-17  2.2436187734220466e-18  4.7065154618773890e-19  9.4374727651473361e-20  1.8060172815422525e-20  3.2920777882362795e-21  5.7029013486458673e-22  9.3616659787474527e-23  1.4509592842973790e-23  2.1130958185107090e-24  2.8728427956237117e-25  3.6125912692620297e-26  4.1446269806757411e-27  4.2467417510493032e-28  3.7560823452064211e-29  2.7318163728635634e-30  1.6740976353957010e-31  1.7448527211337236e-32  4.8569755748212478e-33  1.3346316213230232e-33  2.9335571028372948e-34  9.4081676306417177e-35  3.8930815438747703e-04  3.8582105711358394e-04  3.8483424360674016e-04  3.4954627081517422e-04  2.8513364499018845e-04  6.2773294839781554e-05  9.5089088989903795e-05  4.1525827303128577e-05  2.6541260595830487e-05  1.6386551476828279e-05  9.7960365051881519e-06  5.6785202637608214e-06  3.1936669882009121e-06  1.7428176703354644e-06  9.2267156686886962e-07  4.7376649293570138e-07  2.3585382373206319e-07  1.1380320009074403e-07  5.3204045371029298e-08  2.4090782545672985e-08  1.0561911453872080e-08  4.4819219860525214e-09  1.8402031851467203e-09  7.3078786797701963e-10  2.8059531679201432e-10  1.0413286070555949e-10  3.7335038230166387e-11  1.2926465871667535e-11  4.3200046280949565e-12  1.3929088988621613e-12  4.3308731200734472e-13  1.2977999803314240e-13  3.7460008577967762e-14  1.0408406708924784e-14  2.7820324488003452e-15  7.1479176298941168e-16  1.7639300734186893e-16  4.1770831249815441e-17  9.4822598003819976e-18  2.0610795926923922e-18  4.2839466008723383e-19  8.5013221516465757e-20  1.6077752793411295e-20  2.8913530848853940e-21  4.9309958208756481e-22  7.9477209845391461e-23  1.2053352815395201e-23  1.7099005610990048e-24  2.2504935475184307e-25  2.7154849349018819e-26  2.9487141261506908e-27  2.7925720526041327e-28  2.1711554792261155e-29  1.1977007053404122e-30  2.5403752986662148e-32  -5.5808632498685296e-34  7.8191387226693296e-34  2.4537499706458758e-34  2.4999639771127490e-35  -1.0389453604439931e-35  3.6107219146311228e-04  3.5640981445641536e-04  3.5851186282051880e-04  3.1930482416497858e-04  2.4525882089281291e-04  1.7388269695917097e-04  1.6191413227180444e-04  1.0314872740140892e-04  6.5405889526498590e-05  4.1742121248576969e-05  2.6235578227037915e-05  1.6091576934388866e-05  9.6001437011431086e-06  5.5639390246886525e-06  3.1308578885824454e-06  1.7096797376120520e-06  9.0565408752947486e-07  4.6521679585331396e-07  2.3165028399128971e-07  1.1177098295934429e-07  5.2239892046010626e-08  2.3642820712465859e-08  1.0357939632065787e-08  4.3911220145641776e-09  1.8007591179491108e-09  7.1411051952304411e-10  2.7372859723523862e-10  1.0138668785117175e-10  3.6269614151204142e-11  1.2526029203364941e-11  4.1743705496790576e-12  1.3417043454217685e-12  4.1569861964524974e-13  1.2408143511849858e-13  3.5659256957931402e-14  9.8601332656280111e-15  2.6213131463608634e-15  6.6946659067186281e-16  1.6410508916477997e-16  3.8570921758268003e-17  8.6825195595623436e-18  1.8694280736541505e-18  3.8440149338089626e-19  7.5351194495588387e-20  1.4050137792335136e-20  2.4854158452321275e-21  4.1571190673620795e-22  6.5461441464473809e-23  9.6488808619531198e-24  1.3206558441343550e-24  1.6589254510955817e-25  1.8773989531116175e-26  1.8531290570024396e-27  1.4911733703833929e-28  8.0040300916317922e-30  -2.9875525822765220e-32  -6.0869912020065472e-32  -4.5454723670545803e-33  6.9891407384911138e-34  2.4208950160062073e-34  3.0638413927736533e-35  3.2642463236651923e-37  3.1642770012765440e-04  3.1406750640747261e-04  3.1218041459568651e-04  2.7805895599964297e-04  2.1469739939130588e-04  1.4839281361616092e-04  9.8243604680286082e-05  6.3572200486452534e-05  4.0651683084775261e-05  2.5517133225640762e-05  1.5642789010352899e-05  9.3369567940140839e-06  5.4172302074635629e-06  3.0520659277369628e-06  1.6686138072808691e-06  8.8476465490725359e-07  4.5480553846855575e-07  2.2655677612482467e-07  1.0932702899865758e-07  5.1089471463665104e-08  2.3111383979012791e-08  1.0117731038830348e-08  4.2849663728406182e-09  1.7549107047888117e-09  6.9480818767066002e-10  2.6582660388649477e-10  9.8240559349854018e-11  3.5054083404202035e-11  1.2070937903248020e-11  4.0094150629469704e-12  1.2838856067418144e-12  3.9612010596658946e-13  1.1768252714169814e-13  3.3642401067512899e-14  9.2476012887606849e-15  2.4422046565186650e-15  6.1908351856180348e-16  1.5048208882334481e-16  3.5033380084372434e-17  7.8011363818199304e-18  1.6589450213928645e-18  3.3627768049254671e-19  6.4831031232552268e-20  1.1854625792113354e-20  2.0488012444879957e-21  3.3316062845603887e-22  5.0664710897417943e-23  7.1439405136217017e-24  9.2216732584213114e-25  1.0675016718318806e-25  1.0672765144792760e-26  8.4688400486587380e-28  3.9423958328246898e-29  -1.7366026772199977e-30  -5.6792671288472788e-31  -3.6746462606645694e-32  7.9963474005796446e-33  2.9215944322695647e-33  5.2179785354201467e-34  5.9754066130628825e-35  6.1595644345498472e-36  2.7715826687713915e-04  2.7857738322105164e-04  2.6783373245210519e-04  2.3834795382161774e-04  1.8871359679939868e-04  1.3565198492789541e-04  9.2481373455708020e-05  6.1044447140140364e-05  3.9365857604089083e-05  2.4798455793697756e-05  1.5231057304975991e-05  9.1040637124862514e-06  5.2884587279145831e-06  2.9825409572060607e-06  1.6318373035766144e-06  8.6568773324240294e-07  4.4507001113523986e-07  2.2167711076828984e-07  1.0692179887129135e-07  4.9924731876301147e-08  2.2559093087600449e-08  9.8615911646419278e-09  4.1688853316729696e-09  1.7036872022274496e-09  6.7280526782203220e-10  2.5665504412392228e-10  9.4530101557674037e-11  3.3600235372772225e-11  1.1519808068115897e-11  3.8074955136098186e-12  1.2124533983886712e-12  3.7173992912514194e-13  1.0966089737648343e-13  3.1100031677126554e-14  8.4720057141882055e-15  2.2146331093120432e-15  5.5491254318469627e-16  1.3310698890509548e-16  3.0520209345802834e-17  6.6776815479446925e-18  1.3912481611979471e-18  2.7530148428127112e-19  5.1574892948742513e-20  9.1093802057577059e-21  1.5085142378282412e-21  2.3241143973269838e-22  3.2934153546018171e-23  4.2147943994334773e-24  4.7137191371039028e-25  4.2865326197422110e-26  2.4949914907492854e-27  -6.4764137583546442e-29  -4.1669552797574071e-29  -5.7565825563122954e-30  -2.0265282831769854e-31  1.0070864360126076e-31  3.0383449666145804e-32  5.1909473037342526e-33  5.8418049708747219e-34  2.6127975061911746e-35  -1.1864077843731016e-35  2.6254862425759249e-04  2.6676640406565451e-04  2.5079010515138459e-04  2.2263478556884729e-04  1.7829843041039059e-04  1.3027982547055903e-04  8.9822555454194787e-05  5.9735060262419800e-05  3.8668444204252425e-05  2.4401988651742798e-05  1.4998056484860576e-05  8.9658018082565049e-06  5.2066883005323686e-06  2.9345499299457476e-06  1.6040285434352992e-06  8.4980964918207064e-07  4.3617527779635428e-07  2.1679413272646287e-07  1.0430655885895067e-07  4.8561676012824824e-08  2.1869184178291017e-08  9.5228203820420190e-09  4.0079273964706571e-09  1.6297317902731601e-09  6.3997100559554382e-10  2.4257301869957714e-10  8.8701960790025697e-11  3.1274074501724325e-11  1.0624911658624519e-11  3.4758213152824728e-12  1.0940839324559360e-12  3.3108312891980190e-13  9.6228425467700179e-14  2.6833708343212260e-14  7.1701907075740095e-15  1.8332724801112998e-15  4.4774318539492997e-16  1.0424238000141797e-16  2.3076715233229189e-17  4.8420352691106356e-18  9.5893735851833335e-19  1.7823402417405694e-19  3.0838187841085596e-20  4.9050432762120231e-21  7.0211867904680973e-22  8.6713855015305447e-23  8.2795405748905473e-24  3.3969628894612316e-25  -8.7209506627193336e-26  -2.9415303798528420e-26  -5.5590174673490629e-27  -7.6048861627447734e-28  -6.9529784841594036e-29  -8.5779751887318632e-31  1.2609439183802509e-30  3.1913623827333736e-31  4.8887605704367301e-32  4.7076393362160972e-33  4.8539768502863835e-35  -9.6123681140633953e-35  -4.3149138967580524e-35  </DataArray> 
</PointData> 
</Piece>
</UnstructuredGrid>
</VTKFile>