<?xml version="1.0"?>
<VTKFile type="UnstructuredGrid"  version="0.1"  >
<UnstructuredGrid>
<Piece  NumberOfPoints="670" NumberOfCells="1192">
<Points>
<DataArray  type="Float64"  NumberOfComponents="3"  format="ascii">0 0 0  0.04 -1.31357e-10 0  0.0400579 0.0400582 0  0 0.04 0  0.08 -2.62713e-10 0  0.080123 0.0401093 0  0.12 -3.9407e-10 0  0.120183 0.040127 0  0.16 -5.25427e-10 0  0.160176 0.0400597 0  0.2 -6.56784e-10 0  0.199997 0.0399142 0  0.24 -7.8814e-10 0  0.239816 0.0400642 0  0.28 -9.19497e-10 0  0.279804 0.0401377 0  0.32 -1.05085e-09 0  0.319855 0.0401297 0  0.36 -1.18221e-09 0  0.359906 0.0400945 0  0.4 -1.31357e-09 0  0.399941 0.0400609 0  0.44 -1.44492e-09 0  0.439962 0.0400367 0  0.48 -1.57628e-09 0  0.479975 0.0400214 0  0.52 -1.70764e-09 0  0.519983 0.0400122 0  0.5600000000000001 -1.83899e-09 0  0.559987 0.0400069 0  0.6 -1.97035e-09 0  0.59999 0.040004 0  0.64 -2.10171e-09 0  0.639993 0.0400023 0  0.68 -2.23306e-09 0  0.679994 0.0400013 0  0.72 -2.36442e-09 0  0.7199950000000001 0.0400008 0  0.76 -2.49578e-09 0  0.759996 0.0400005 0  0.8 -2.62713e-09 0  0.799997 0.0400002 0  0.84 -2.75849e-09 0  0.839997 0.0400001 0  0.88 -2.88985e-09 0  0.8799979999999999 0.04 0  0.92 -3.0212e-09 0  0.919999 0.0399999 0  0.96 -3.15256e-09 0  0.959999 0.0399998 0  1 -3.28392e-09 0  1 0.0399998 0  1.04 -3.41527e-09 0  1.04 0.0399998 0  1.08 -3.54663e-09 0  1.08 0.0399998 0  1.12 -3.67799e-09 0  1.12 0.0399998 0  1.16 -3.80934e-09 0  1.16 0.0399999 0  1.2 -3.9407e-09 0  1.2 0.04 0  1.24 -4.07206e-09 0  1.24 0.04 0  1.28 -4.20341e-09 0  1.28 0.0400001 0  1.32 -4.33477e-09 0  1.32 0.0400001 0  1.36 -4.46613e-09 0  1.36 0.04 0  1.4 -4.59748e-09 0  1.4 0.04 0  1.44 -4.72884e-09 0  1.44 0.04 0  1.48 -4.8602e-09 0  1.48 0.04 0  1.52 -4.99156e-09 0  1.52 0.04 0  1.56 -5.12291e-09 0  1.56 0.04 0  1.6 -5.25427e-09 0  1.6 0.0400001 0  1.64 -5.38563e-09 0  1.64 0.0400001 0  1.68 -5.51698e-09 0  1.68 0.04 0  1.72 -5.64834e-09 0  1.72 0.04 0  1.76 -5.7797e-09 0  1.76 0.04 0  1.8 -5.91105e-09 0  1.8 0.04 0  1.84 -6.04241e-09 0  1.84 0.04 0  1.88 -6.17377e-09 0  1.88 0.0400001 0  1.92 -6.30512e-09 0  1.92 0.0400001 0  1.96 -6.43648e-09 0  1.96 0.0400001 0  2 -6.56784e-09 0  2 0.0400001 0  2.04 -6.69919e-09 0  2.04 0.0400001 0  2.08 -6.83055e-09 0  2.08 0.04 0  2.12 -6.96191e-09 0  2.12 0.04 0  2.16 -7.09326e-09 0  2.16 0.0400001 0  2.2 -7.22462e-09 0  2.2 0.04 0  2.24 -7.35598e-09 0  2.24 0.04 0  2.28 -7.48733e-09 0  2.28 0.0399999 0  2.32 -7.618690000000001e-09 0  2.32 0.04 0  2.36 -7.750049999999999e-09 0  2.36 0.04 0  2.4 -7.8814e-09 0  2.4 0.04 0  0.0401088 0.0801235 0  0 0.08 0  0.0802509 0.0802518 0  0.120434 0.0803392 0  0.160522 0.0801977 0  0.199995 0.0795328 0  0.239464 0.0802049 0  0.279544 0.08035689999999999 0  0.319711 0.0802867 0  0.359828 0.08018740000000001 0  0.399896 0.0801123 0  0.439933 0.0800646 0  0.479955 0.0800365 0  0.519968 0.08002049999999999 0  0.559976 0.0800116 0  0.599982 0.0800066 0  0.6399860000000001 0.0800039 0  0.679989 0.0800023 0  0.719991 0.0800014 0  0.759992 0.0800008 0  0.799994 0.0800004 0  0.839995 0.08000019999999999 0  0.879996 0.0799999 0  0.919997 0.07999970000000001 0  0.959999 0.0799996 0  1 0.0799995 0  1.04 0.0799995 0  1.08 0.0799996 0  1.12 0.07999970000000001 0  1.16 0.0799998 0  1.2 0.08 0  1.24 0.0800001 0  1.28 0.0800001 0  1.32 0.0800001 0  1.36 0.08 0  1.4 0.0799999 0  1.44 0.0799999 0  1.48 0.0799999 0  1.52 0.0799999 0  1.56 0.08 0  1.6 0.0800001 0  1.64 0.0800001 0  1.68 0.08 0  1.72 0.0799999 0  1.76 0.0799999 0  1.8 0.0799999 0  1.84 0.0799999 0  1.88 0.08 0  1.92 0.0800001 0  1.96 0.0800001 0  2 0.0800001 0  2.04 0.08 0  2.08 0.0799999 0  2.12 0.0799999 0  2.16 0.08 0  2.2 0.08 0  2.24 0.0799999 0  2.28 0.0799998 0  2.32 0.0799999 0  2.36 0.0799999 0  2.4 0.08 0  0.0401262 0.120184 0  0 0.12 0  0.0803378 0.120435 0  0.120779 0.12078 0  0.161485 0.120859 0  0.199996 0.117814 0  0.238503 0.120866 0  0.279195 0.120798 0  0.319616 0.120473 0  0.359799 0.120256 0  0.39988 0.120136 0  0.439921 0.120073 0  0.479944 0.120039 0  0.519958 0.120022 0  0.5599690000000001 0.120012 0  0.599976 0.120007 0  0.639981 0.120004 0  0.679985 0.120002 0  0.719987 0.120002 0  0.7599900000000001 0.120001 0  0.799991 0.12 0  0.839993 0.12 0  0.879995 0.12 0  0.919996 0.12 0  0.959998 0.119999 0  1 0.119999 0  1.04 0.119999 0  1.08 0.119999 0  1.12 0.12 0  1.16 0.12 0  1.2 0.12 0  1.24 0.12 0  1.28 0.12 0  1.32 0.12 0  1.36 0.12 0  1.4 0.12 0  1.44 0.12 0  1.48 0.12 0  1.52 0.12 0  1.56 0.12 0  1.6 0.12 0  1.64 0.12 0  1.68 0.12 0  1.72 0.12 0  1.76 0.12 0  1.8 0.12 0  1.84 0.12 0  1.88 0.12 0  1.92 0.12 0  1.96 0.12 0  2 0.12 0  2.04 0.12 0  2.08 0.12 0  2.12 0.12 0  2.16 0.12 0  2.2 0.12 0  2.24 0.12 0  2.28 0.12 0  2.32 0.12 0  2.36 0.12 0  2.4 0.12 0  0.0400582 0.160177 0  0 0.16 0  0.0801954 0.160525 0  0.120857 0.161488 0  0.164645 0.164645 0  0.2 0.15 0  0.235355 0.164645 0  0.279119 0.161498 0  0.319759 0.16055 0  0.359874 0.160228 0  0.399906 0.160104 0  0.439925 0.160051 0  0.479941 0.160027 0  0.519954 0.160014 0  0.559964 0.160008 0  0.5999719999999999 0.160005 0  0.639978 0.160003 0  0.679982 0.160002 0  0.719985 0.160001 0  0.759988 0.160001 0  0.79999 0.16 0  0.839992 0.16 0  0.8799940000000001 0.16 0  0.919996 0.159999 0  0.959998 0.159999 0  1 0.159999 0  1.04 0.159999 0  1.08 0.159999 0  1.12 0.16 0  1.16 0.16 0  1.2 0.16 0  1.24 0.16 0  1.28 0.16 0  1.32 0.16 0  1.36 0.16 0  1.4 0.16 0  1.44 0.16 0  1.48 0.16 0  1.52 0.16 0  1.56 0.16 0  1.6 0.16 0  1.64 0.16 0  1.68 0.16 0  1.72 0.16 0  1.76 0.16 0  1.8 0.16 0  1.84 0.16 0  1.88 0.16 0  1.92 0.16 0  1.96 0.16 0  2 0.16 0  2.04 0.16 0  2.08 0.16 0  2.12 0.16 0  2.16 0.16 0  2.2 0.16 0  2.24 0.16 0  2.28 0.16 0  2.32 0.16 0  2.36 0.16 0  2.4 0.16 0  0.0399111 0.2 0  0 0.2 0  0.0795281 0.2 0  0.117811 0.2 0  0.15 0.2 0  0.282167 0.2 0  0.25 0.2 0  0.320429 0.2 0  0.36003 0.200001 0  0.399944 0.200001 0  0.439934 0.200001 0  0.479942 0.200001 0  0.519953 0.200001 0  0.559963 0.200001 0  0.59997 0.200001 0  0.639976 0.200001 0  0.6799809999999999 0.200001 0  0.719984 0.200001 0  0.759987 0.200001 0  0.799989 0.2 0  0.839991 0.2 0  0.879993 0.2 0  0.919996 0.199999 0  0.959998 0.199999 0  1 0.199999 0  1.04 0.199999 0  1.08 0.199999 0  1.12 0.2 0  1.16 0.2 0  1.2 0.2 0  1.24 0.2 0  1.28 0.2 0  1.32 0.2 0  1.36 0.2 0  1.4 0.2 0  1.44 0.2 0  1.48 0.2 0  1.52 0.2 0  1.56 0.2 0  1.6 0.2 0  1.64 0.2 0  1.68 0.2 0  1.72 0.2 0  1.76 0.2 0  1.8 0.2 0  1.84 0.2 0  1.88 0.2 0  1.92 0.2 0  1.96 0.2 0  2 0.2 0  2.04 0.2 0  2.08 0.2 0  2.12 0.2 0  2.16 0.2 0  2.2 0.2 0  2.24 0.2 0  2.28 0.2 0  2.32 0.2 0  2.36 0.2 0  2.4 0.2 0  0.0400582 0.239823 0  0 0.24 0  0.0801953 0.239475 0  0.120857 0.238513 0  0.164645 0.235355 0  0.279119 0.238502 0  0.235355 0.235355 0  0.319759 0.239451 0  0.359873 0.239774 0  0.399905 0.239898 0  0.439925 0.239951 0  0.479941 0.239976 0  0.519954 0.239988 0  0.559964 0.239994 0  0.5999719999999999 0.239997 0  0.639977 0.239999 0  0.679982 0.24 0  0.719985 0.24 0  0.759987 0.24 0  0.79999 0.24 0  0.839992 0.24 0  0.8799940000000001 0.24 0  0.919996 0.239999 0  0.959998 0.239999 0  1 0.239999 0  1.04 0.239999 0  1.08 0.239999 0  1.12 0.24 0  1.16 0.24 0  1.2 0.24 0  1.24 0.24 0  1.28 0.24 0  1.32 0.24 0  1.36 0.24 0  1.4 0.24 0  1.44 0.24 0  1.48 0.24 0  1.52 0.24 0  1.56 0.24 0  1.6 0.24 0  1.64 0.24 0  1.68 0.24 0  1.72 0.24 0  1.76 0.24 0  1.8 0.24 0  1.84 0.24 0  1.88 0.24 0  1.92 0.24 0  1.96 0.24 0  2 0.24 0  2.04 0.24 0  2.08 0.24 0  2.12 0.24 0  2.16 0.24 0  2.2 0.24 0  2.24 0.24 0  2.28 0.24 0  2.32 0.24 0  2.36 0.24 0  2.4 0.24 0  0.0401261 0.279816 0  0 0.28 0  0.0803376 0.279565 0  0.120778 0.27922 0  0.161485 0.279141 0  0.2 0.25 0  0.199996 0.282186 0  0.238503 0.279135 0  0.279195 0.279202 0  0.319616 0.279528 0  0.359799 0.279745 0  0.39988 0.279865 0  0.43992 0.279929 0  0.479944 0.279962 0  0.519958 0.27998 0  0.559968 0.27999 0  0.599976 0.279995 0  0.639981 0.279998 0  0.679984 0.279999 0  0.719987 0.28 0  0.759989 0.28 0  0.799991 0.28 0  0.839993 0.28 0  0.879995 0.28 0  0.919997 0.279999 0  0.959998 0.279999 0  1 0.279999 0  1.04 0.279999 0  1.08 0.28 0  1.12 0.28 0  1.16 0.28 0  1.2 0.28 0  1.24 0.28 0  1.28 0.28 0  1.32 0.28 0  1.36 0.28 0  1.4 0.28 0  1.44 0.28 0  1.48 0.28 0  1.52 0.28 0  1.56 0.28 0  1.6 0.28 0  1.64 0.28 0  1.68 0.28 0  1.72 0.28 0  1.76 0.28 0  1.8 0.28 0  1.84 0.28 0  1.88 0.28 0  1.92 0.28 0  1.96 0.28 0  2 0.28 0  2.04 0.28 0  2.08 0.28 0  2.12 0.28 0  2.16 0.28 0  2.2 0.28 0  2.24 0.28 0  2.28 0.28 0  2.32 0.28 0  2.36 0.28 0  2.4 0.28 0  0.0401086 0.319877 0  0 0.32 0  0.08025060000000001 0.319748 0  0.120433 0.319661 0  0.160522 0.319802 0  0.199995 0.320467 0  0.239464 0.319795 0  0.279543 0.319643 0  0.31971 0.319714 0  0.359828 0.319813 0  0.399895 0.319889 0  0.439933 0.319937 0  0.479955 0.319965 0  0.519968 0.319981 0  0.559976 0.31999 0  0.599982 0.319995 0  0.6399860000000001 0.319998 0  0.679989 0.319999 0  0.719991 0.32 0  0.759992 0.32 0  0.799994 0.32 0  0.839995 0.32 0  0.879996 0.32 0  0.919998 0.32 0  0.959999 0.32 0  1 0.32 0  1.04 0.32 0  1.08 0.32 0  1.12 0.32 0  1.16 0.32 0  1.2 0.32 0  1.24 0.32 0  1.28 0.32 0  1.32 0.32 0  1.36 0.32 0  1.4 0.32 0  1.44 0.32 0  1.48 0.32 0  1.52 0.32 0  1.56 0.32 0  1.6 0.32 0  1.64 0.32 0  1.68 0.32 0  1.72 0.32 0  1.76 0.32 0  1.8 0.32 0  1.84 0.32 0  1.88 0.32 0  1.92 0.32 0  1.96 0.32 0  2 0.32 0  2.04 0.32 0  2.08 0.32 0  2.12 0.32 0  2.16 0.32 0  2.2 0.32 0  2.24 0.32 0  2.28 0.32 0  2.32 0.32 0  2.36 0.32 0  2.4 0.32 0  0.0400579 0.359942 0  0 0.36 0  0.0801229 0.359891 0  0.120183 0.359873 0  0.160175 0.35994 0  0.199997 0.360086 0  0.239816 0.359936 0  0.279804 0.359862 0  0.319855 0.359871 0  0.359906 0.359906 0  0.399941 0.35994 0  0.439962 0.359964 0  0.479975 0.359979 0  0.5199820000000001 0.359989 0  0.559987 0.359994 0  0.59999 0.359997 0  0.639993 0.359998 0  0.679994 0.359999 0  0.7199950000000001 0.36 0  0.759996 0.36 0  0.799997 0.36 0  0.839997 0.36 0  0.8799979999999999 0.36 0  0
[...]
<PointData  Scalars="f_10391-2"> 
<DataArray  type="Float64"  Name="f_10391-2"  format="ascii">2.6346024375436817e-04  2.6268074362314570e-04  2.7848130043542596e-04  2.7945092739566161e-04  2.4940870393086321e-04  2.6675730638895328e-04  2.1708365923405368e-04  2.3224405521646982e-04  1.7158289864221832e-04  1.8135078281822955e-04  1.2551622242114576e-04  1.3063991505864517e-04  8.6846115674486674e-05  8.9174848040495625e-05  5.7890503138824030e-05  5.8886032014103579e-05  3.7508173809539773e-05  3.7939254015073587e-05  2.3679521691827560e-05  2.3870940181833964e-05  1.4561251270362275e-05  1.4644034055655274e-05  8.7120033951788073e-06  8.7433132333630593e-06  5.0659273939166021e-06  5.0734356463485366e-06  2.8605529432370924e-06  2.8583698495423173e-06  1.5675288550531043e-06  1.5625637232319046e-06  8.3320601924727554e-07  8.2838798503709223e-07  4.2944226497074208e-07  4.2573156138801577e-07  2.1455814978579542e-07  2.1204257760741142e-07  1.0388814181068220e-07  1.0231995421837389e-07  4.8738340778023041e-08  4.7822724229078488e-08  2.2149722224944221e-08  2.1643937094567230e-08  9.7491773044242024e-09  9.4834451190315971e-09  4.1551014435826864e-09  4.0215527595513744e-09  1.7144202516493938e-09  1.6501028450241087e-09  6.8466531387061111e-10  6.5494932280468746e-10  2.6458689358383348e-10  2.5138134173752740e-10  9.8919393429628677e-11  9.3276009789174962e-11  3.5769288476541968e-11  3.3447417743525091e-11  1.2506689164627334e-11  1.1586557460742551e-11  4.2272703129482941e-12  3.8759422508047020e-12  1.3808300485241916e-12  1.2515566957241549e-12  4.3576661330354940e-13  3.8992288489698087e-13  1.3282092309147121e-13  1.1715180895629772e-13  3.9087304599687226e-14  3.3925640263510872e-14  1.1102260390186299e-14  9.4636266268570347e-15  3.0425272078722708e-15  2.5412545025166308e-15  8.0414474083840307e-16  6.5640470985282451e-16  2.0489260161801970e-16  1.6294862064583329e-16  5.0304788007441458e-17  3.8836820124873759e-17  1.1894904852834943e-17  8.8761544904851700e-18  2.7072780541248678e-18  1.9424684969821943e-18  5.9270984537937717e-19  4.0628782537852838e-19  1.2472760368831397e-19  8.1029536698464897e-20  2.5206519025225468e-20  1.5361395574496263e-20  4.8869475920638056e-21  2.7563605375201708e-21  9.0778699221199244e-22  4.6523367801399955e-22  1.6131204641204298e-22  7.3163474975862610e-23  2.7366642792856660e-23  1.0549621740048352e-23  4.4210817317850656e-24  1.3525314193761606e-24  6.7780331624785375e-25  1.4328914039945784e-25  9.8156185399555246e-26  9.4877355968248897e-27  1.3337975454878981e-26  -6.2399436162344543e-28  1.6839297793748467e-27  -3.9355368875159152e-28  1.9443123479526441e-28  -9.5805123593438397e-29  1.9967041113377227e-29  -1.7737761549071999e-29  1.7206869593512386e-30  -2.7638062087374016e-30  1.0507250578008703e-31  -3.6985398878529614e-31  5.8221844258809832e-34  -4.1629220203048671e-32  -9.6331718263875269e-34  -3.5978025109314822e-33  -1.4648948479129488e-34  -1.4762863948188427e-34  -1.5780979197801683e-35  4.8426986657909537e-35  3.1637387879857542e-04  3.1465804550915850e-04  3.1010120663142537e-04  2.7235318146117933e-04  2.0820346465054418e-04  1.4444428320518690e-04  9.5075408791871387e-05  6.1396061703110794e-05  3.9150093853479746e-05  2.4518844383587456e-05  1.5000392079875311e-05  8.9353427151162975e-06  5.1727507595389582e-06  2.9073478937073954e-06  1.5854724882722195e-06  8.3849298662523066e-07  4.2989845805469045e-07  2.1360704943062809e-07  1.0283046362266569e-07  4.7947420497801562e-08  2.1647524412773843e-08  9.4612824337258511e-09  4.0018380970712526e-09  1.6376111094399622e-09  6.4812899532491270e-10  2.4802448737004555e-10  9.1741765380848535e-11  3.2787984715837259e-11  1.1318181905415094e-11  3.7720767463286497e-12  1.2132341954148666e-12  3.7642260112059821e-13  1.1260749837675131e-13  3.2463770060531542e-14  9.0143288674936367e-15  2.4094323265122343e-15  6.1953549912660193e-16  1.5313943728192755e-16  3.6362204143123808e-17  8.2870408193757888e-18  1.8111239219554582e-18  3.7921145040963757e-19  7.5990921994838208e-20  1.4559462164059558e-20  2.6645293118636947e-21  4.6545772698655684e-22  7.7600520809392808e-23  1.2360054347070734e-23  1.8869247019329466e-24  2.7806181212356587e-25  4.0068305813921349e-26  5.7590443473675245e-27  8.4534405793864149e-28  1.2894492055041859e-28  2.0430978983791742e-29  3.2965023308316477e-30  5.2584354142027047e-31  8.0536325497548228e-32  1.1538990895604929e-32  1.5304318307868899e-33  3.4159856454002981e-34  3.5529264254913765e-04  3.5217015589796843e-04  3.5338317552702263e-04  3.1682298364417661e-04  2.4258551407746812e-04  1.6054993957829151e-04  9.9992612333375588e-05  6.3181324887457530e-05  4.0196223230573213e-05  2.5205377064179671e-05  1.5424742770391498e-05  9.1781258011712575e-06  5.3030689447698057e-06  2.9736416563162035e-06  1.6175748147684428e-06  8.5336626586336795e-07  4.3647606513879971e-07  2.1637248558042889e-07  1.0392938993852128e-07  4.8352118632544981e-08  2.1783580215529463e-08  9.5000304017192887e-09  4.0093778102653207e-09  1.6370409907266366e-09  6.4641707416401025e-10  2.4677498192250983e-10  9.1052583201314471e-11  3.2456762401240334e-11  1.1173049997594767e-11  3.7128946018530572e-12  1.1905323644685848e-12  3.6817885320239460e-13  1.0976259054074493e-13  3.1528461393152604e-14  8.7209481619808039e-15  2.3215529653821533e-15  5.9438601104451417e-16  1.4626196872803498e-16  3.4565066360223979e-17  7.8383564574913645e-18  1.7041043051351915e-18  3.5482135425886001e-19  7.0676250497078272e-20  1.3450375748217189e-20  2.4421131545996785e-21  4.2232494304710237e-22  6.9426560050356269e-23  1.0823040578552769e-23  1.5948147038714976e-24  2.2104847909400240e-25  2.8572948645686201e-26  3.3834121791195227e-27  3.5083069752565369e-28  2.7253110780288161e-29  1.0508121309362043e-31  -6.0605215246359249e-31  -1.8798008495422781e-31  -4.3066834874389765e-32  -8.6108268733849542e-33  -1.5991807119363199e-33  -5.2240871110786904e-34  3.8087306850269722e-04  3.7857095549656875e-04  3.7872136978155655e-04  3.4991108303131870e-04  2.8599344200071409e-04  1.6814041836489787e-04  9.2275233867876081e-05  6.1074223395248824e-05  4.0135547917876761e-05  2.5556227668974389e-05  1.5728151596160229e-05  9.3687171744136947e-06  5.4080970947161738e-06  3.0272263503734124e-06  1.6434443703866934e-06  8.6522268380255599e-07  4.4163904215010217e-07  2.1850047429841305e-07  1.0474698215567234e-07  4.8639562378906699e-08  2.1870884418121367e-08  9.5196900702822964e-09  4.0097478115140570e-09  1.6338191649886748e-09  6.4377386654361228e-10  2.4521661008857931e-10  9.0264122064301294e-11  3.2095038121575170e-11  1.1018960428059303e-11  3.6512083589337457e-12  1.1671557091586681e-12  3.5975630822158505e-13  1.0686943722366789e-13  3.0579274492812558e-14  8.4231637250850892e-15  2.2321507325910752e-15  5.6868842871871029e-16  1.3918824819001530e-16  3.2700139851772216e-17  7.3674479677017152e-18  1.5902218786111105e-18  3.2844576507745344e-19  6.4826164520164481e-20  1.2207707326851506e-20  2.1892735187609083e-21  3.7303747670847169e-22  6.0219445788615482e-23  9.1750371511422925e-24  1.3124915829967434e-24  1.7492926288347742e-25  2.1456790026038079e-26  2.3696734555620586e-27  2.2513773783698045e-28  1.6254709702426061e-29  4.2729555890934389e-31  -1.1098789216909890e-31  -2.0579950533612124e-32  -2.3513971792828829e-35  1.0243314426953339e-33  4.0042739202282555e-34  2.0854232575656173e-34  3.9136627736533592e-04  3.8928319195843085e-04  3.8818793602758711e-04  3.6585071875414808e-04  3.3687884109947537e-04  5.6282048200863230e-05  7.0734977332362925e-05  3.9419476322724688e-05  2.5591202445637632e-05  1.5834922964806180e-05  9.4410670485721369e-06  5.4469089964635103e-06  3.0457907155146064e-06  1.6515280973475414e-06  8.6840470049428409e-07  4.4269876732568760e-07  2.1873603643894857e-07  1.0471949135728557e-07  4.8558966812976585e-08  2.1802743638403519e-08  9.4753411464889451e-09  3.9844788396609958e-09  1.6206078997311400e-09  6.3734877426977591e-10  2.4226895425204957e-10  8.8980128822495935e-11  3.1561921646453568e-11  1.0807431450578892e-11  3.5708749779806482e-12  1.1379217427578415e-12  3.4955511306855135e-13  1.0345460323207731e-13  2.9482450067474484e-14  8.0851158410584532e-15  2.1321829456864140e-15  5.4032863659138251e-16  1.3147235705831243e-16  3.0687582881543303e-17  6.8644236678473834e-18  1.4698105608012291e-18  3.0085941217351600e-19  5.8782211652422837e-20  1.0942622505255013e-20  1.9366059310457092e-21  3.2496480972447626e-22  5.1526329314333054e-23  7.6859327604268668e-24  1.0721262280241342e-24  1.3868716614878423e-25  1.6432547263730448e-26  1.7495135583264121e-27  1.6218661293762942e-28  1.2428098467012521e-29  7.4633167687263759e-31  5.1484290643767709e-32  1.2476864972977078e-32  3.9105870542926688e-33  9.3748626102580859e-34  1.7746127174909073e-34  4.7233114239145202e-35  3.8431949768652230e-04  3.8084663641261332e-04  3.7990479069220737e-04  3.4491764985341330e-04  2.8105067256870171e-04  6.1178162568993833e-05  9.3010819952576057e-05  4.0319232675512163e-05  2.5661163979363125e-05  1.5768032990078567e-05  9.3768596076765960e-06  5.4044276933513618e-06  3.0207065659715461e-06  1.6374817457529618e-06  8.6075776882974859e-07  4.3864403676003006e-07  2.1662522953036712e-07  1.0364339496991949e-07  4.8023404032453282e-08  2.1541534641178013e-08  9.3514242576990837e-09  3.9273159274928523e-09  1.5950509864839487e-09  6.2625581083430058e-10  2.3760729466674947e-10  8.7085502681712108e-11  3.0817998709530957e-11  1.0525414254656401e-11  3.4677434570609917e-12  1.1015634623900286e-12  3.3720557108966966e-13  9.9415510001808859e-14  2.8211123156695260e-14  7.7002358584806301e-15  2.0201781466460789e-15  5.0901532812492229e-16  1.2306762165625639e-16  2.8523263083178506e-17  6.3301158935787286e-18  1.3434630087230923e-18  2.7226833014720056e-19  5.2597767065452239e-20  9.6655719236038097e-21  1.6852637911276498e-21  2.7790828869854307e-22  4.3166761904539046e-23  6.2814158667286047e-24  8.4994374224671123e-25  1.0580038423659338e-25  1.1918432129605150e-26  1.1823468892257355e-27  9.8144039653331039e-29  6.0594024937522120e-30  1.7943416144474046e-31  -6.2225308831037118e-33  1.4490335232069850e-33  8.5337929818777483e-34  1.4497340151652414e-34  -1.0963853823447756e-36  -1.5148549614776385e-35  3.5616121875466550e-04  3.5153132440105580e-04  3.5363228886314596e-04  3.1477779661274427e-04  2.4142676185260069e-04  1.7085007361364684e-04  1.5894130611660497e-04  1.0091763916418886e-04  6.3743338875410388e-05  4.0515975395132475e-05  2.5352642781575535e-05  1.5474847693757190e-05  9.1834006649004391e-06  5.2918365738799862e-06  2.9592846486909946e-06  1.6052387829017129e-06  8.4429011224789439e-07  4.3041990221852648e-07  2.1260796458676018e-07  1.0171511218386578e-07  4.7115680488938381e-08  2.1123329468803751e-08  9.1627258948312637e-09  3.8441281288252962e-09  1.5592853533807253e-09  6.1129772302100548e-10  2.3151904501783110e-10  8.4679957706621526e-11  2.9896492703834508e-11  1.0183634124512021e-11  3.3451527010854190e-12  1.0590796572949848e-12  3.2299428439937761e-13  9.4830857959754584e-14  2.6785903169004224e-14  7.2736439700571834e-15  1.8973333996448049e-15  4.7500817804161231e-16  1.1402487168171065e-16  2.6215575998417869e-17  5.7654361444387673e-18  1.2111076340955150e-18  2.4258525375002008e-19  4.6236420533906173e-20  8.3647613350820211e-21  1.4319083553455943e-21  2.3101063880494573e-22  3.4938868976508614e-23  4.9180578351385122e-24  6.3758197172411639e-25  7.4905644440570079e-26  7.7590386005912086e-27  6.7122103562706957e-28  4.2050546402978082e-29  7.6229639121997558e-31  -2.2163159445896838e-31  -2.7001567300913669e-32  9.6494507969339986e-34  8.2056197607083327e-34  1.4039735637386110e-34  7.5547649728359575e-36  -4.2347821472017158e-36  3.1173668210437538e-04  3.0939781273786994e-04  3.0752647976315127e-04  2.7373557380155000e-04  2.1103272109643072e-04  1.4549078957694860e-04  9.6019803793184698e-05  6.1904272917674729e-05  3.9425220319547562e-05  2.4637652201272862e-05  1.5030335859098552e-05  8.9238771475121327e-06  5.1478076892858655e-06  2.8822899277859821e-06  1.5653087822136418e-06  8.2408837050230052e-07  4.2041123895327611e-07  2.0774343913259511e-07  9.9397670307691317e-08  4.6033275027956545e-08  2.0627525093590899e-08  8.9406478457169860e-09  3.7469329253761961e-09  1.5177394670218660e-09  5.9399749389234780e-10  2.2451788481403636e-10  8.1926153935819546e-11  2.8846007139918452e-11  9.7955423260582603e-12  3.2064281192362049e-12  1.0111570639279115e-12  3.0701110157262236e-13  8.9689016884898114e-14  2.5191776352940619e-14  6.7977563761745422e-15  1.7606563029058494e-15  4.3727481961696812e-16  1.0402004987943754e-16  2.3670264285143365e-17  5.1447380997795800e-18  1.0661835842886916e-18  2.1022816110486593e-19  3.9338345706292143e-20  6.9630571502616990e-21  1.1609950535035976e-21  1.8134080769924202e-22  2.6329917623170153e-23  3.5139301969129720e-24  4.2345299177277639e-25  4.4660857577879743e-26  3.8612662394363772e-27  2.2489144663820854e-28  -8.9223211362554260e-31  -2.1773573370819142e-30  -2.3639968353534316e-31  1.1295835467699628e-32  8.9815941581456541e-33  1.9102709160996316e-33  2.5431582767819727e-34  1.8655488257105532e-35  -1.4953287590999989e-36  2.7271482722455493e-04  2.7412286712046437e-04  2.6347959190944101e-04  2.3430308852844640e-04  1.8523302105929158e-04  1.3284010777711306e-04  9.0294987508565317e-05  5.9391196951676709e-05  3.8147459421955746e-05  2.3924924406480463e-05  1.4623252653496349e-05  8.6944426814690236e-06  5.0214608658473768e-06  2.8143785200121974e-06  1.5295640646836409e-06  8.0564837994632142e-07  4.1105820331205231e-07  2.0308690355752764e-07  9.7119320720998091e-08  4.4938835369082311e-08  2.0113049844918503e-08  8.7042520470976381e-09  3.6408567973981389e-09  1.4714185662901552e-09  5.7431948354074216e-10  2.1641008908656155e-10  7.8685815283254206e-11  2.7592466873403753e-11  9.3266451858872653e-12  3.0370146440856769e-12  9.5209040775587490e-13  2.8715536003122747e-13  8.3258845218866066e-14  2.3187283787365743e-14  6.1967417335368439e-15  1.5874715556944148e-15  3.8935596457784263e-16  9.1300355399213030e-17  2.0434453609785163e-17  4.3567207937493718e-18  8.8270984085186051e-19  1.6944864823582120e-19  3.0701475126016103e-20  5.2238243966689645e-21  8.2891695413005665e-22  1.2143864843797012e-22  1.6170506617330140e-23  1.9048480315949341e-24  1.8783742360427480e-25  1.3275471768984508e-26  1.6739340904896669e-28  -1.3550776326102450e-28  -2.4626280043961980e-29  -1.8336860979664675e-30  1.9868376290254411e-31  9.5724978703976875e-32  1.9107683881043426e-32  2.5048161086027149e-33  1.8258164303533146e-34  -1.1348990212731139e-35  -1.2530326144319724e-35  2.5820682203975769e-04  2.6239071335708183e-04  2.4656498685351834e-04  2.1871533679862883e-04  1.7490184371795576e-04  1.2751073360948536e-04  8.7656898574348314e-05  5.8091907086936044e-05  3.7455729412630637e-05  2.3532225101258967e-05  1.4392998634230765e-05  8.5582376960804275e-06  4.9412164110142434e-06  2.7674981653489486e-06  1.5025415973701132e-06  7.9031115969832976e-07  4.0252322968698030e-07  1.9843552064949618e-07  9.4647721381769855e-08  4.3661502444829130e-08  1.9472325769242528e-08  8.3926230043764787e-09  3.4942751548790030e-09  1.4047767039790522e-09  5.4505870060697250e-10  2.0400596607160943e-10  7.3614351518688401e-11  2.5593998188446280e-11  8.5680212184937398e-12  2.7597514579190090e-12  8.5457692518667849e-13  2.5417116398633439e-13  7.2534687087745166e-14  1.9837910599961315e-14  5.1925710971468460e-15  1.2986945563794966e-15  3.0976664071367607e-16  7.0298465099977688e-17  1.5134376075510269e-17  3.0792472650460609e-18  5.8909026528419318e-19  1.0521593003436610e-19  1.7358661570561143e-20  2.5997799896339995e-21  3.4222601682852764e-22  3.6747644931109014e-23  2.4445533360666500e-24  -1.4447277136676806e-25  -8.9048960303277279e-26  -1.9485865324254502e-26  -2.9829941566401764e-27  -3.2398083524424955e-28  -1.5990156884207092e-29  2.9897668751182787e-30  1.0548150665854707e-30  1.8725567475000886e-31  2.1729641869233022e-32  1.0789000665418862e-33  -2.2353992287743627e-34  -7.9632908308535725e-35  -2.5185677508794634e-35  </DataArray> 
</PointData> 
</Piece>
</UnstructuredGrid>
</VTKFile>