<?xml version="1.0"?>
<VTKFile type="UnstructuredGrid"  version="0.1"  >
<UnstructuredGrid>
<Piece  NumberOfPoints="670" NumberOfCells="1192">
<Points>
<DataArray  type="Float64"  NumberOfComponents="3"  format="ascii">0 0 0  0.04 -1.31357e-10 0  0.0400579 0.0400582 0  0 0.04 0  0.08 -2.62713e-10 0  0.080123 0.0401093 0  0.12 -3.9407e-10 0  0.120183 0.040127 0  0.16 -5.25427e-10 0  0.160176 0.0400597 0  0.2 -6.56784e-10 0  0.199997 0.0399142 0  0.24 -7.8814e-10 0  0.239816 0.0400642 0  0.28 -9.19497e-10 0  0.279804 0.0401377 0  0.32 -1.05085e-09 0  0.319855 0.0401297 0  0.36 -1.18221e-09 0  0.359906 0.0400945 0  0.4 -1.31357e-09 0  0.399941 0.0400609 0  0.44 -1.44492e-09 0  0.439962 0.0400367 0  0.48 -1.57628e-09 0  0.479975 0.0400214 0  0.52 -1.70764e-09 0  0.519983 0.0400122 0  0.5600000000000001 -1.83899e-09 0  0.559987 0.0400069 0  0.6 -1.97035e-09 0  0.59999 0.040004 0  0.64 -2.10171e-09 0  0.639993 0.0400023 0  0.68 -2.23306e-09 0  0.679994 0.0400013 0  0.72 -2.36442e-09 0  0.7199950000000001 0.0400008 0  0.76 -2.49578e-09 0  0.759996 0.0400005 0  0.8 -2.62713e-09 0  0.799997 0.0400002 0  0.84 -2.75849e-09 0  0.839997 0.0400001 0  0.88 -2.88985e-09 0  0.8799979999999999 0.04 0  0.92 -3.0212e-09 0  0.919999 0.0399999 0  0.96 -3.15256e-09 0  0.959999 0.0399998 0  1 -3.28392e-09 0  1 0.0399998 0  1.04 -3.41527e-09 0  1.04 0.0399998 0  1.08 -3.54663e-09 0  1.08 0.0399998 0  1.12 -3.67799e-09 0  1.12 0.0399998 0  1.16 -3.80934e-09 0  1.16 0.0399999 0  1.2 -3.9407e-09 0  1.2 0.04 0  1.24 -4.07206e-09 0  1.24 0.04 0  1.28 -4.20341e-09 0  1.28 0.0400001 0  1.32 -4.33477e-09 0  1.32 0.0400001 0  1.36 -4.46613e-09 0  1.36 0.04 0  1.4 -4.59748e-09 0  1.4 0.04 0  1.44 -4.72884e-09 0  1.44 0.04 0  1.48 -4.8602e-09 0  1.48 0.04 0  1.52 -4.99156e-09 0  1.52 0.04 0  1.56 -5.12291e-09 0  1.56 0.04 0  1.6 -5.25427e-09 0  1.6 0.0400001 0  1.64 -5.38563e-09 0  1.64 0.0400001 0  1.68 -5.51698e-09 0  1.68 0.04 0  1.72 -5.64834e-09 0  1.72 0.04 0  1.76 -5.7797e-09 0  1.76 0.04 0  1.8 -5.91105e-09 0  1.8 0.04 0  1.84 -6.04241e-09 0  1.84 0.04 0  1.88 -6.17377e-09 0  1.88 0.0400001 0  1.92 -6.30512e-09 0  1.92 0.0400001 0  1.96 -6.43648e-09 0  1.96 0.0400001 0  2 -6.56784e-09 0  2 0.0400001 0  2.04 -6.69919e-09 0  2.04 0.0400001 0  2.08 -6.83055e-09 0  2.08 0.04 0  2.12 -6.96191e-09 0  2.12 0.04 0  2.16 -7.09326e-09 0  2.16 0.0400001 0  2.2 -7.22462e-09 0  2.2 0.04 0  2.24 -7.35598e-09 0  2.24 0.04 0  2.28 -7.48733e-09 0  2.28 0.0399999 0  2.32 -7.618690000000001e-09 0  2.32 0.04 0  2.36 -7.750049999999999e-09 0  2.36 0.04 0  2.4 -7.8814e-09 0  2.4 0.04 0  0.0401088 0.0801235 0  0 0.08 0  0.0802509 0.0802518 0  0.120434 0.0803392 0  0.160522 0.0801977 0  0.199995 0.0795328 0  0.239464 0.0802049 0  0.279544 0.08035689999999999 0  0.319711 0.0802867 0  0.359828 0.08018740000000001 0  0.399896 0.0801123 0  0.439933 0.0800646 0  0.479955 0.0800365 0  0.519968 0.08002049999999999 0  0.559976 0.0800116 0  0.599982 0.0800066 0  0.6399860000000001 0.0800039 0  0.679989 0.0800023 0  0.719991 0.0800014 0  0.759992 0.0800008 0  0.799994 0.0800004 0  0.839995 0.08000019999999999 0  0.879996 0.0799999 0  0.919997 0.07999970000000001 0  0.959999 0.0799996 0  1 0.0799995 0  1.04 0.0799995 0  1.08 0.0799996 0  1.12 0.07999970000000001 0  1.16 0.0799998 0  1.2 0.08 0  1.24 0.0800001 0  1.28 0.0800001 0  1.32 0.0800001 0  1.36 0.08 0  1.4 0.0799999 0  1.44 0.0799999 0  1.48 0.0799999 0  1.52 0.0799999 0  1.56 0.08 0  1.6 0.0800001 0  1.64 0.0800001 0  1.68 0.08 0  1.72 0.0799999 0  1.76 0.0799999 0  1.8 0.0799999 0  1.84 0.0799999 0  1.88 0.08 0  1.92 0.0800001 0  1.96 0.0800001 0  2 0.0800001 0  2.04 0.08 0  2.08 0.0799999 0  2.12 0.0799999 0  2.16 0.08 0  2.2 0.08 0  2.24 0.0799999 0  2.28 0.0799998 0  2.32 0.0799999 0  2.36 0.0799999 0  2.4 0.08 0  0.0401262 0.120184 0  0 0.12 0  0.0803378 0.120435 0  0.120779 0.12078 0  0.161485 0.120859 0  0.199996 0.117814 0  0.238503 0.120866 0  0.279195 0.120798 0  0.319616 0.120473 0  0.359799 0.120256 0  0.39988 0.120136 0  0.439921 0.120073 0  0.479944 0.120039 0  0.519958 0.120022 0  0.5599690000000001 0.120012 0  0.599976 0.120007 0  0.639981 0.120004 0  0.679985 0.120002 0  0.719987 0.120002 0  0.7599900000000001 0.120001 0  0.799991 0.12 0  0.839993 0.12 0  0.879995 0.12 0  0.919996 0.12 0  0.959998 0.119999 0  1 0.119999 0  1.04 0.119999 0  1.08 0.119999 0  1.12 0.12 0  1.16 0.12 0  1.2 0.12 0  1.24 0.12 0  1.28 0.12 0  1.32 0.12 0  1.36 0.12 0  1.4 0.12 0  1.44 0.12 0  1.48 0.12 0  1.52 0.12 0  1.56 0.12 0  1.6 0.12 0  1.64 0.12 0  1.68 0.12 0  1.72 0.12 0  1.76 0.12 0  1.8 0.12 0  1.84 0.12 0  1.88 0.12 0  1.92 0.12 0  1.96 0.12 0  2 0.12 0  2.04 0.12 0  2.08 0.12 0  2.12 0.12 0  2.16 0.12 0  2.2 0.12 0  2.24 0.12 0  2.28 0.12 0  2.32 0.12 0  2.36 0.12 0  2.4 0.12 0  0.0400582 0.160177 0  0 0.16 0  0.0801954 0.160525 0  0.120857 0.161488 0  0.164645 0.164645 0  0.2 0.15 0  0.235355 0.164645 0  0.279119 0.161498 0  0.319759 0.16055 0  0.359874 0.160228 0  0.399906 0.160104 0  0.439925 0.160051 0  0.479941 0.160027 0  0.519954 0.160014 0  0.559964 0.160008 0  0.5999719999999999 0.160005 0  0.639978 0.160003 0  0.679982 0.160002 0  0.719985 0.160001 0  0.759988 0.160001 0  0.79999 0.16 0  0.839992 0.16 0  0.8799940000000001 0.16 0  0.919996 0.159999 0  0.959998 0.159999 0  1 0.159999 0  1.04 0.159999 0  1.08 0.159999 0  1.12 0.16 0  1.16 0.16 0  1.2 0.16 0  1.24 0.16 0  1.28 0.16 0  1.32 0.16 0  1.36 0.16 0  1.4 0.16 0  1.44 0.16 0  1.48 0.16 0  1.52 0.16 0  1.56 0.16 0  1.6 0.16 0  1.64 0.16 0  1.68 0.16 0  1.72 0.16 0  1.76 0.16 0  1.8 0.16 0  1.84 0.16 0  1.88 0.16 0  1.92 0.16 0  1.96 0.16 0  2 0.16 0  2.04 0.16 0  2.08 0.16 0  2.12 0.16 0  2.16 0.16 0  2.2 0.16 0  2.24 0.16 0  2.28 0.16 0  2.32 0.16 0  2.36 0.16 0  2.4 0.16 0  0.0399111 0.2 0  0 0.2 0  0.0795281 0.2 0  0.117811 0.2 0  0.15 0.2 0  0.282167 0.2 0  0.25 0.2 0  0.320429 0.2 0  0.36003 0.200001 0  0.399944 0.200001 0  0.439934 0.200001 0  0.479942 0.200001 0  0.519953 0.200001 0  0.559963 0.200001 0  0.59997 0.200001 0  0.639976 0.200001 0  0.6799809999999999 0.200001 0  0.719984 0.200001 0  0.759987 0.200001 0  0.799989 0.2 0  0.839991 0.2 0  0.879993 0.2 0  0.919996 0.199999 0  0.959998 0.199999 0  1 0.199999 0  1.04 0.199999 0  1.08 0.199999 0  1.12 0.2 0  1.16 0.2 0  1.2 0.2 0  1.24 0.2 0  1.28 0.2 0  1.32 0.2 0  1.36 0.2 0  1.4 0.2 0  1.44 0.2 0  1.48 0.2 0  1.52 0.2 0  1.56 0.2 0  1.6 0.2 0  1.64 0.2 0  1.68 0.2 0  1.72 0.2 0  1.76 0.2 0  1.8 0.2 0  1.84 0.2 0  1.88 0.2 0  1.92 0.2 0  1.96 0.2 0  2 0.2 0  2.04 0.2 0  2.08 0.2 0  2.12 0.2 0  2.16 0.2 0  2.2 0.2 0  2.24 0.2 0  2.28 0.2 0  2.32 0.2 0  2.36 0.2 0  2.4 0.2 0  0.0400582 0.239823 0  0 0.24 0  0.0801953 0.239475 0  0.120857 0.238513 0  0.164645 0.235355 0  0.279119 0.238502 0  0.235355 0.235355 0  0.319759 0.239451 0  0.359873 0.239774 0  0.399905 0.239898 0  0.439925 0.239951 0  0.479941 0.239976 0  0.519954 0.239988 0  0.559964 0.239994 0  0.5999719999999999 0.239997 0  0.639977 0.239999 0  0.679982 0.24 0  0.719985 0.24 0  0.759987 0.24 0  0.79999 0.24 0  0.839992 0.24 0  0.8799940000000001 0.24 0  0.919996 0.239999 0  0.959998 0.239999 0  1 0.239999 0  1.04 0.239999 0  1.08 0.239999 0  1.12 0.24 0  1.16 0.24 0  1.2 0.24 0  1.24 0.24 0  1.28 0.24 0  1.32 0.24 0  1.36 0.24 0  1.4 0.24 0  1.44 0.24 0  1.48 0.24 0  1.52 0.24 0  1.56 0.24 0  1.6 0.24 0  1.64 0.24 0  1.68 0.24 0  1.72 0.24 0  1.76 0.24 0  1.8 0.24 0  1.84 0.24 0  1.88 0.24 0  1.92 0.24 0  1.96 0.24 0  2 0.24 0  2.04 0.24 0  2.08 0.24 0  2.12 0.24 0  2.16 0.24 0  2.2 0.24 0  2.24 0.24 0  2.28 0.24 0  2.32 0.24 0  2.36 0.24 0  2.4 0.24 0  0.0401261 0.279816 0  0 0.28 0  0.0803376 0.279565 0  0.120778 0.27922 0  0.161485 0.279141 0  0.2 0.25 0  0.199996 0.282186 0  0.238503 0.279135 0  0.279195 0.279202 0  0.319616 0.279528 0  0.359799 0.279745 0  0.39988 0.279865 0  0.43992 0.279929 0  0.479944 0.279962 0  0.519958 0.27998 0  0.559968 0.27999 0  0.599976 0.279995 0  0.639981 0.279998 0  0.679984 0.279999 0  0.719987 0.28 0  0.759989 0.28 0  0.799991 0.28 0  0.839993 0.28 0  0.879995 0.28 0  0.919997 0.279999 0  0.959998 0.279999 0  1 0.279999 0  1.04 0.279999 0  1.08 0.28 0  1.12 0.28 0  1.16 0.28 0  1.2 0.28 0  1.24 0.28 0  1.28 0.28 0  1.32 0.28 0  1.36 0.28 0  1.4 0.28 0  1.44 0.28 0  1.48 0.28 0  1.52 0.28 0  1.56 0.28 0  1.6 0.28 0  1.64 0.28 0  1.68 0.28 0  1.72 0.28 0  1.76 0.28 0  1.8 0.28 0  1.84 0.28 0  1.88 0.28 0  1.92 0.28 0  1.96 0.28 0  2 0.28 0  2.04 0.28 0  2.08 0.28 0  2.12 0.28 0  2.16 0.28 0  2.2 0.28 0  2.24 0.28 0  2.28 0.28 0  2.32 0.28 0  2.36 0.28 0  2.4 0.28 0  0.0401086 0.319877 0  0 0.32 0  0.08025060000000001 0.319748 0  0.120433 0.319661 0  0.160522 0.319802 0  0.199995 0.320467 0  0.239464 0.319795 0  0.279543 0.319643 0  0.31971 0.319714 0  0.359828 0.319813 0  0.399895 0.319889 0  0.439933 0.319937 0  0.479955 0.319965 0  0.519968 0.319981 0  0.559976 0.31999 0  0.599982 0.319995 0  0.6399860000000001 0.319998 0  0.679989 0.319999 0  0.719991 0.32 0  0.759992 0.32 0  0.799994 0.32 0  0.839995 0.32 0  0.879996 0.32 0  0.919998 0.32 0  0.959999 0.32 0  1 0.32 0  1.04 0.32 0  1.08 0.32 0  1.12 0.32 0  1.16 0.32 0  1.2 0.32 0  1.24 0.32 0  1.28 0.32 0  1.32 0.32 0  1.36 0.32 0  1.4 0.32 0  1.44 0.32 0  1.48 0.32 0  1.52 0.32 0  1.56 0.32 0  1.6 0.32 0  1.64 0.32 0  1.68 0.32 0  1.72 0.32 0  1.76 0.32 0  1.8 0.32 0  1.84 0.32 0  1.88 0.32 0  1.92 0.32 0  1.96 0.32 0  2 0.32 0  2.04 0.32 0  2.08 0.32 0  2.12 0.32 0  2.16 0.32 0  2.2 0.32 0  2.24 0.32 0  2.28 0.32 0  2.32 0.32 0  2.36 0.32 0  2.4 0.32 0  0.0400579 0.359942 0  0 0.36 0  0.0801229 0.359891 0  0.120183 0.359873 0  0.160175 0.35994 0  0.199997 0.360086 0  0.239816 0.359936 0  0.279804 0.359862 0  0.319855 0.359871 0  0.359906 0.359906 0  0.399941 0.35994 0  0.439962 0.359964 0  0.479975 0.359979 0  0.5199820000000001 0.359989 0  0.559987 0.359994 0  0.59999 0.359997 0  0.639993 0.359998 0  0.679994 0.359999 0  0.7199950000000001 0.36 0  0.759996 0.36 0  0.799997 0.36 0  0.839997 0.36 0  0.8799979999999999 0.36 0  0
[...]
<PointData  Scalars="f_10391-2"> 
<DataArray  type="Float64"  Name="f_10391-2"  format="ascii">3.2914997852415655e-04  3.2827740850578240e-04  3.4555323222393872e-04  3.4654683400124636e-04  3.1326206005918410e-04  3.3242138112482843e-04  2.7613573528931397e-04  2.9299272993415473e-04  2.2314830744650882e-04  2.3404921015791772e-04  1.6852160100639454e-04  1.7426265022144521e-04  1.2147870243678920e-04  1.2409986789208328e-04  8.5026567557606431e-05  8.6155904400358332e-05  5.8243885597376382e-05  5.8741753278333582e-05  3.9123845818918802e-05  3.9352949382620498e-05  2.5757816657187043e-05  2.5862897664318028e-05  1.6601928190133656e-05  1.6645589071479594e-05  1.0464517650505724e-05  1.0477512121930336e-05  6.4448491889915315e-06  6.4437371181450493e-06  3.8756726639226853e-06  3.8693495352821790e-06  2.2745573012357562e-06  2.2673329568603962e-06  1.3022205088579528e-06  1.2959307535925305e-06  7.2705254773387879e-07  7.2227324685303798e-07  3.9575257642360584e-07  3.9240830518027105e-07  2.0997157096582365e-07  2.0777131513976371e-07  1.0856578521037237e-07  1.0718953650079021e-07  5.4695000971926534e-08  5.3872212389778247e-08  2.6844803717386554e-08  2.6371406665887919e-08  1.2834237802558717e-08  1.2571717746045885e-08  5.9761038393633665e-09  5.8356648507465661e-09  2.7098728982526967e-09  2.6371513531137379e-09  1.1964737321934638e-09  1.1600493591956891e-09  5.1430693351532800e-10  4.9663256184911542e-10  2.1520175261498474e-10  2.0688865053057425e-10  8.7641584177776692e-11  8.3849863401730118e-11  3.4733581432663015e-11  3.3055953676718789e-11  1.3393519227150820e-11  1.2673352694059210e-11  5.0242804772781870e-12  4.7242804077674804e-12  1.8332089185910113e-12  1.7119251327685517e-12  6.5047513704176879e-13  6.0288686424757270e-13  2.2441352777008748e-13  2.0629064434931840e-13  7.5263151100569359e-14  6.8564594943717993e-14  2.4532556343733270e-14  2.2129594353270026e-14  7.7703147292184548e-15  6.9337501229144011e-15  2.3909703988251800e-15  2.1083499156419735e-15  7.1457847830007924e-16  6.2193380974744276e-16  2.0737710084820625e-16  1.7791272050156695e-16  5.8424667636143655e-17  4.9334470321515677e-17  1.5974969655336153e-17  1.3254862986767048e-17  4.2380716261268185e-18  3.4487369210721080e-18  1.0905574875694655e-18  8.6847351344234108e-19  2.7210607320399089e-19  2.1153536839743409e-19  6.5808682249605693e-20  4.9798402842142123e-20  1.5421056072706272e-20  1.1320799012381477e-20  3.4998118233966229e-21  2.4826868252205907e-21  7.6889578579320284e-22  5.2458200182603569e-22  1.6343654815125858e-22  1.0663320645509087e-22  3.3591073347457131e-23  2.0812898859690634e-23  6.6709380720936698e-24  3.8910478844375191e-24  1.2790409047502348e-24  6.9450239853460111e-25  2.3653791695924514e-25  1.1781328808009742e-25  4.2146903865827311e-26  1.8872116376110768e-26  7.2290120790337829e-27  2.8288016651543673e-27  1.1959921459261714e-27  3.9394335820437455e-28  1.9926494243833891e-28  5.4744016762939881e-29  6.9746613078345250e-29  1.6729842526903286e-29  3.8648038232187904e-04  3.8440040007973715e-04  3.7969773290118280e-04  3.3710360805103276e-04  2.6373843816229054e-04  1.8956615896892850e-04  1.3059246673082433e-04  8.8887419665030813e-05  6.0062858770982462e-05  4.0077613770261445e-05  2.6277877345055881e-05  1.6880443529032516e-05  1.0605767626629551e-05  6.5108122903018782e-06  3.9027091492720356e-06  2.2829873212434771e-06  1.3027756249308201e-06  7.2494939564337951e-07  3.9326648312522035e-07  2.0791949728808623e-07  1.0710692258292319e-07  5.3750193953060839e-08  2.6272020881590050e-08  1.2504921994706603e-08  5.7950790128209772e-09  2.6144004721870103e-09  1.1480112624028367e-09  4.9056439842810492e-10  2.0395924079879313e-10  8.2490697327365115e-11  3.2448495119224920e-11  1.2411422176690744e-11  4.6152023192693885e-12  1.6680240928714402e-12  5.8580245907352558e-13  1.9986045197759662e-13  6.6223672689949021e-14  2.1305320384296972e-14  6.6530763778581467e-15  2.0159536169021693e-15  5.9254062635361121e-16  1.6888193409711587e-16  4.6656695364625741e-17  1.2489299290314112e-17  3.2379635552782925e-18  8.1267998617084468e-19  1.9736575992779845e-19  4.6355949722992874e-20  1.0524076538382905e-20  2.3081156384282298e-21  4.8872728618825890e-22  9.9849840810495649e-23  1.9671783563351446e-23  3.7353001984495470e-24  6.8332110309008903e-25  1.2042007457360513e-25  2.0452995445769057e-26  3.3548909570582220e-27  5.3611174624624482e-28  8.8793649485864483e-29  3.0113391740124408e-29  4.2750234769218658e-04  4.2394230489268826e-04  4.2552954271322165e-04  3.8474180689765386e-04  3.0104654994783344e-04  2.0709972375298225e-04  1.3564828549926357e-04  9.0600144092707242e-05  6.1101930582476213e-05  4.0809419782947527e-05  2.6760399760158151e-05  1.7173466195154959e-05  1.0772701047313899e-05  6.6011357939905516e-06  3.9493444375621459e-06  2.3061028843820569e-06  1.3137305976634417e-06  7.2987997882639403e-07  3.9535256592721281e-07  2.0871976026402359e-07  1.0737433645057353e-07  5.3811710311898481e-08  2.6266880199058309e-08  1.2485897982773956e-08  5.7784846686487508e-09  2.6032760477465182e-09  1.1415005993154572e-09  4.8706142570770307e-10  2.0219010241433665e-10  8.1642641238312927e-11  3.2060163994342752e-11  1.2240855524771667e-11  4.5431435414992377e-12  1.6386889264356803e-12  5.7428025450963956e-13  1.9549025802707181e-13  6.4622141282473527e-14  2.0738048260946781e-14  6.4588252729158407e-15  1.9516417264326041e-15  5.7195508193962598e-16  1.6251184659800655e-16  4.4751331133760354e-17  1.1938530361341182e-17  3.0841433608948414e-18  7.7118609256188793e-19  1.8655732458881942e-19  4.3638020136869562e-20  9.8643977817720967e-21  2.1535801359995565e-21  4.5377894106169411e-22  9.2214898655097893e-23  1.8058379660250486e-23  3.4047467197035617e-24  6.1741393901003088e-25  1.0755903678897992e-25  1.7977394130812575e-26  2.8799856323480925e-27  4.4393057436234531e-28  6.9651999406819420e-29  2.2017570424967880e-29  4.5379845274236004e-04  4.5129428424826726e-04  4.5132236668876007e-04  4.1936260143752641e-04  3.4812804389427278e-04  2.1493619321237065e-04  1.2577418852183228e-04  8.7638706808489101e-05  6.0790691190187604e-05  4.1128590878410555e-05  2.7093945318267163e-05  1.7401563086217947e-05  1.0907244775614771e-05  6.6744283518487177e-06  3.9872092027054724e-06  2.3247086108899153e-06  1.3224291514967840e-06  7.3372679462022850e-07  3.9692397155705211e-07  2.0929341341749556e-07  1.0753983418369868e-07  5.3831426289606485e-08  2.6245710730587208e-08  1.2460811509734785e-08  5.7598727481633215e-09  2.5916315346252851e-09  1.1349109314561803e-09  4.8358732801773185e-10  2.0045871054774767e-10  8.0820431083796493e-11  3.1686147224783896e-11  1.2077347495512410e-11  4.4742984552886664e-12  1.6107283839886222e-12  5.6331505690129289e-13  1.9133499525428106e-13  6.3099807997629253e-14  2.0198663241286600e-14  6.2739605626865682e-15  1.8903476525441952e-15  5.5229402754838598e-16  1.5641078364279426e-16  4.2919967274209393e-17  1.1406844954629532e-17  2.9348724138116125e-18  7.3066715997143013e-19  1.7592537955715012e-19  4.0941881795014071e-20  9.2037756269921372e-21  1.9972110561397086e-21  4.1803172898704269e-22  8.4323655842375629e-23  1.6376551247365090e-23  3.0587504810201402e-24  5.4871983368202343e-25  9.4401406502424281e-26  1.5547499779937081e-26  2.4475587610585150e-27  3.6950276214350069e-28  5.6572210780371384e-29  1.7523951856096670e-29  4.6468237583635190e-04  4.6249512882623928e-04  4.6096331066263141e-04  4.3618489317722803e-04  4.0409258569216414e-04  8.1541925279101965e-05  9.9423182463603146e-05  5.9780794741203518e-05  4.1118207976604331e-05  2.7210011858584046e-05  1.7490157483645248e-05  1.0958718056425174e-05  6.7009887730327341e-06  3.9997199007325410e-06  2.3300715255328547e-06  1.3243818991081211e-06  7.3419758837291455e-07  3.9685363274949007e-07  2.0908265617143387e-07  1.0734038802849060e-07  5.3684286383601884e-08  2.6149848059584474e-08  1.2402976056277695e-08  5.7272148614678248e-09  2.5741046331341714e-09  1.1259122433579128e-09  4.7915003728188339e-10  1.9835163292994543e-10  7.9855255561158775e-11  3.1259128672039313e-11  1.1894713580432155e-11  4.3987413368733322e-12  1.5804793088155519e-12  5.5159270639546345e-13  1.8693696730849897e-13  6.1502162270816345e-14  1.9636721135576348e-14  6.0825900694580621e-15  1.8272529391204581e-15  5.3215723522796439e-16  1.5019071936203135e-16  4.1060800346802870e-17  1.0869247145407958e-17  2.7845253371021655e-18  6.9001351826617849e-19  1.6530052350912456e-19  3.8259006716020683e-20  8.5495194215519908e-21  1.8431979803083399e-21  3.8305389793413421e-22  7.6664497076304953e-23  1.4760706232983754e-23  2.7306110661376988e-24  4.8464740634474558e-25  8.2389376228449483e-26  1.3389229624791352e-26  2.0765595137732786e-27  3.0830995357868321e-28  4.6331313810719839e-29  1.4131901684151670e-29  4.5789175523014761e-04  4.5413515346205159e-04  4.5287750692461857e-04  4.1396188044495876e-04  3.4271747775431439e-04  8.7731292231145875e-05  1.2663320233202713e-04  6.1009067775854385e-05  4.1267260533091903e-05  2.7155876930322340e-05  1.7421650925201118e-05  1.0908858614786515e-05  6.6692812518385631e-06  3.9806055532394085e-06  2.3187827137968861e-06  1.3178425194116439e-06  7.3043772515333814e-07  3.9471560172426453e-07  2.0788568233443256e-07  1.0667628140732018e-07  5.3323261037187434e-08  2.5957502444127852e-08  1.2303006627494625e-08  5.6763607549999708e-09  2.5488817822864001e-09  1.1137284676027887e-09  4.7342433060751314e-10  1.9573508437330927e-10  7.8693391782841872e-11  3.0758027930553126e-11  1.1684879217288827e-11  4.3134571448441425e-12  1.5468456317295575e-12  5.3872570156427519e-13  1.8216313993084095e-13  5.9784912750816767e-14  1.9037939061078905e-14  5.8802593988800904e-15  1.7610164924877567e-15  5.1115554456135845e-16  1.4374299974656475e-16  3.9144704966652449e-17  1.0318259245951643e-17  2.6312667272286638e-18  6.4879458107655653e-19  1.5458597408677007e-19  3.5568371552377288e-20  7.8971140845924538e-21  1.6905415839437288e-21  3.4860541280071112e-22  6.9172995455601128e-23  1.3191965708370581e-23  2.4146024054707922e-24  4.2347969396599242e-25  7.1027666250415486e-26  1.1367076956155790e-26  1.7320814875272301e-27  2.5191911954002556e-28  3.6962183485889218e-29  1.1034188055208312e-29  4.2890306035739010e-04  4.2371667564950025e-04  4.2620706656423737e-04  3.8271585692559260e-04  2.9983809692880295e-04  2.1803882529928702e-04  2.0539690803239897e-04  1.3680617128157568e-04  9.1332183684174681e-05  6.1533124297779706e-05  4.1027117464764951e-05  2.6851804838359937e-05  1.7200389943554763e-05  1.0770589565216364e-05  6.5886888059204360e-06  3.9352805628867612e-06  2.2938344816222279e-06  1.3043116240205001e-06  7.2320448503765832e-07  3.9087591021376280e-07  2.0586683603414201e-07  1.0562775191802889e-07  5.2784384703106454e-08  2.5684359493811955e-08  1.2166776583468875e-08  5.6097471184392901e-09  2.5168989015064691e-09  1.0987040887761128e-09  4.6652802054377728e-10  1.9264671363080756e-10  7.7345575557062633e-11  3.0185277721907470e-11  1.1448078029271740e-11  4.2182673077043554e-12  1.5096638186512919e-12  5.2462046449023261e-13  1.7696868386728488e-13  5.7928704373566437e-14  1.8394556436079097e-14  5.6640351427314795e-15  1.6905840901826302e-15  4.8892679151307025e-16  1.3694827312585069e-16  3.7133859283886399e-17  9.7423362478023019e-18  2.4716974697308133e-18  6.0604400187703336e-19  1.4351623298592526e-19  3.2799434916768989e-20  7.2284237203759341e-21  1.5347283403381034e-21  3.1359877495423986e-22  6.1595525160498325e-23  1.1613121196912631e-23  2.0982654738180791e-24  3.6260513034424592e-25  5.9792289604822632e-26  9.3813778597649092e-27  1.3964639612572907e-27  1.9750868519088883e-28  2.8076378541126494e-29  8.1645658936234483e-30  3.8162907842031617e-04  3.7888674088044260e-04  3.7718021554391943e-04  3.3905641999672508e-04  2.6728520945706917e-04  1.9105141932366672e-04  1.3188400857810678e-04  8.9628212278431774e-05  6.0489069975440708e-05  4.0289486899461450e-05  2.6361095257523969e-05  1.6895713262090334e-05  1.0591019317412562e-05  6.4864733600887042e-06  3.8785783760993789e-06  2.2629529761522790e-06  1.2877094389936824e-06  7.1436825065156518e-07  3.8622457664376040e-07  2.0344294412303242e-07  1.0437599299214828e-07  5.2146417423729529e-08  2.5363657342874574e-08  1.2007790033118839e-08  5.5322960411472339e-09  2.4799448694373778e-09  1.0814185579426171e-09  4.5862449229639706e-10  1.8911965152163765e-10  7.5810675306487274e-11  2.9534647698341663e-11  1.1179662624569863e-11  4.1105748127261744e-12  1.4676690277677639e-12  5.0871312659684435e-13  1.7111840235389611e-13  5.5840674561344645e-14  1.7671630575578272e-14  5.4213334423484226e-15  1.6116066135795141e-15  4.6402585840702007e-16  1.2934433379076740e-16  3.4885858852882295e-17  9.0991962225851430e-18  2.2937169185344196e-18  5.5842386823063334e-19  1.3120401750484556e-19  2.9725001481369798e-20  6.4874420694646450e-21  1.3624772863599538e-21  2.7500761434241317e-22  5.3270303369676408e-23  9.8855557913988553e-24  1.7538571705765212e-24  2.9673617274701320e-25  4.7728267111855045e-26  7.2698808955557415e-27  1.0440761010545445e-27  1.4138680685763898e-28  1.9196858003037396e-29  5.4209178954927604e-30  3.3926451357855835e-04  3.4073650887042872e-04  3.2902357405506342e-04  2.9578665678991665e-04  2.3896304746675966e-04  1.7717817534614451e-04  1.2567008495461965e-04  8.6939530098980596e-05  5.9122086256564331e-05  3.9509398607216791e-05  2.5898009433374334e-05  1.6622102864579530e-05  1.0432049582707634e-05  6.3957738476402454e-06  3.8275321497702577e-06  2.2345769187847515e-06  1.2720522706489134e-06  7.0581070309961081e-07  3.8158014785430272e-07  2.0094214399940463e-07  1.0304603480720665e-07  5.1448643425175793e-08  2.5002788573774154e-08  1.1824738852334830e-08  5.4411986818996390e-09  2.4356568462941685e-09  1.0603654855095412e-09  4.4886444681668884e-10  1.8471152905013932e-10  7.3872873610122239e-11  2.8706145427270666e-11  1.0835362760553644e-11  3.9715772700482815e-12  1.4131809652024683e-12  4.8798133159932858e-13  1.6346516741315821e-13  5.3100578246325755e-14  1.6720492062277820e-14  5.1013523711350213e-15  1.5073146918237028e-15  4.3110574713739259e-16  1.1928458744491564e-16  3.1911121572790221e-17  8.2483444853627600e-18  2.0584316611894338e-18  4.9555387121331894e-19  1.1498036379766267e-19  2.5684548038380782e-20  5.5169943934405170e-21  1.1378742893896482e-21  2.2496418837945793e-22  4.2548075183348699e-23  7.6792741327568178e-24  1.3185527408760529e-24  2.1454024315126311e-25  3.2909887337402276e-26  4.7268818082667287e-27  6.3015992074995101e-28  7.7640067923218414e-29  9.6305780833833335e-30  2.6818720840269664e-30  3.2336881836269953e-04  3.2794933665923355e-04  3.1031458653831332e-04  2.7843786602979354e-04  2.2745294333806115e-04  1.7125346936341216e-04  1.2274921194967313e-04  8.5507477477301695e-05  5.8358928150438111e-05  3.9070370380181959e-05  2.5633607132420574e-05  1.6459497449775673e-05  1.0331379604701807e-05  6.3332777022852610e-06  3.7888428354463433e-06  2.2107284428162788e-06  1.2574899971625417e-06  6.9700909387621557e-07  3.7634538122249415e-07  1.9788824859801331e-07  1.0130302952242961e-07  5.0476448984500729e-08  2.4474745220354460e-08  1.1545559759904019e-08  5.2976397628885326e-09  2.3638582719954935e-09  1.0254818473782567e-09  4.3240812959369209e-10  1.7717588471695006e-10  7.0524186919441862e-11  2.7262373668003757e-11  1.0231550072160976e-11  3.7266729588879757e-12  1.3168669103973833e-12  4.5126276564653287e-13  1.4989823474145970e-13  4.8243596709832227e-14  1.5036192181614804e-14  4.5357528220197662e-15  1.3234528552901637e-15  3.7326825550369944e-16  1.0168553068832356e-16  2.6733380271174292e-17  6.7761990606850048e-18  1.6541490831345324e-18  3.8838224910452158e-19  8.7574828308124840e-20  1.8929572711029263e-20  3.9135611317634209e-21  7.7171134498183767e-22  1.4461637490013623e-22  2.5630644305786274e-23  4.2672147125053391e-24  6.6071525972061941e-25  9.3614865076313613e-26  1.1785612205694486e-26  1.2351745820915187e-27  8.7189841786926620e-29  -1.2273081664714627e-30  -1.2098487294887199e-30  5.7467903640945069e-32  </DataArray> 
</PointData> 
</Piece>
</UnstructuredGrid>
</VTKFile>