<?xml version="1.0"?>
<VTKFile type="UnstructuredGrid"  version="0.1"  >
<UnstructuredGrid>
<Piece  NumberOfPoints="670" NumberOfCells="1192">
<Points>
<DataArray  type="Float64"  NumberOfComponents="3"  format="ascii">0 0 0  0.04 -1.31357e-10 0  0.0400579 0.0400582 0  0 0.04 0  0.08 -2.62713e-10 0  0.080123 0.0401093 0  0.12 -3.9407e-10 0  0.120183 0.040127 0  0.16 -5.25427e-10 0  0.160176 0.0400597 0  0.2 -6.56784e-10 0  0.199997 0.0399142 0  0.24 -7.8814e-10 0  0.239816 0.0400642 0  0.28 -9.19497e-10 0  0.279804 0.0401377 0  0.32 -1.05085e-09 0  0.319855 0.0401297 0  0.36 -1.18221e-09 0  0.359906 0.0400945 0  0.4 -1.31357e-09 0  0.399941 0.0400609 0  0.44 -1.44492e-09 0  0.439962 0.0400367 0  0.48 -1.57628e-09 0  0.479975 0.0400214 0  0.52 -1.70764e-09 0  0.519983 0.0400122 0  0.5600000000000001 -1.83899e-09 0  0.559987 0.0400069 0  0.6 -1.97035e-09 0  0.59999 0.040004 0  0.64 -2.10171e-09 0  0.639993 0.0400023 0  0.68 -2.23306e-09 0  0.679994 0.0400013 0  0.72 -2.36442e-09 0  0.7199950000000001 0.0400008 0  0.76 -2.49578e-09 0  0.759996 0.0400005 0  0.8 -2.62713e-09 0  0.799997 0.0400002 0  0.84 -2.75849e-09 0  0.839997 0.0400001 0  0.88 -2.88985e-09 0  0.8799979999999999 0.04 0  0.92 -3.0212e-09 0  0.919999 0.0399999 0  0.96 -3.15256e-09 0  0.959999 0.0399998 0  1 -3.28392e-09 0  1 0.0399998 0  1.04 -3.41527e-09 0  1.04 0.0399998 0  1.08 -3.54663e-09 0  1.08 0.0399998 0  1.12 -3.67799e-09 0  1.12 0.0399998 0  1.16 -3.80934e-09 0  1.16 0.0399999 0  1.2 -3.9407e-09 0  1.2 0.04 0  1.24 -4.07206e-09 0  1.24 0.04 0  1.28 -4.20341e-09 0  1.28 0.0400001 0  1.32 -4.33477e-09 0  1.32 0.0400001 0  1.36 -4.46613e-09 0  1.36 0.04 0  1.4 -4.59748e-09 0  1.4 0.04 0  1.44 -4.72884e-09 0  1.44 0.04 0  1.48 -4.8602e-09 0  1.48 0.04 0  1.52 -4.99156e-09 0  1.52 0.04 0  1.56 -5.12291e-09 0  1.56 0.04 0  1.6 -5.25427e-09 0  1.6 0.0400001 0  1.64 -5.38563e-09 0  1.64 0.0400001 0  1.68 -5.51698e-09 0  1.68 0.04 0  1.72 -5.64834e-09 0  1.72 0.04 0  1.76 -5.7797e-09 0  1.76 0.04 0  1.8 -5.91105e-09 0  1.8 0.04 0  1.84 -6.04241e-09 0  1.84 0.04 0  1.88 -6.17377e-09 0  1.88 0.0400001 0  1.92 -6.30512e-09 0  1.92 0.0400001 0  1.96 -6.43648e-09 0  1.96 0.0400001 0  2 -6.56784e-09 0  2 0.0400001 0  2.04 -6.69919e-09 0  2.04 0.0400001 0  2.08 -6.83055e-09 0  2.08 0.04 0  2.12 -6.96191e-09 0  2.12 0.04 0  2.16 -7.09326e-09 0  2.16 0.0400001 0  2.2 -7.22462e-09 0  2.2 0.04 0  2.24 -7.35598e-09 0  2.24 0.04 0  2.28 -7.48733e-09 0  2.28 0.0399999 0  2.32 -7.618690000000001e-09 0  2.32 0.04 0  2.36 -7.750049999999999e-09 0  2.36 0.04 0  2.4 -7.8814e-09 0  2.4 0.04 0  0.0401088 0.0801235 0  0 0.08 0  0.0802509 0.0802518 0  0.120434 0.0803392 0  0.160522 0.0801977 0  0.199995 0.0795328 0  0.239464 0.0802049 0  0.279544 0.08035689999999999 0  0.319711 0.0802867 0  0.359828 0.08018740000000001 0  0.399896 0.0801123 0  0.439933 0.0800646 0  0.479955 0.0800365 0  0.519968 0.08002049999999999 0  0.559976 0.0800116 0  0.599982 0.0800066 0  0.6399860000000001 0.0800039 0  0.679989 0.0800023 0  0.719991 0.0800014 0  0.759992 0.0800008 0  0.799994 0.0800004 0  0.839995 0.08000019999999999 0  0.879996 0.0799999 0  0.919997 0.07999970000000001 0  0.959999 0.0799996 0  1 0.0799995 0  1.04 0.0799995 0  1.08 0.0799996 0  1.12 0.07999970000000001 0  1.16 0.0799998 0  1.2 0.08 0  1.24 0.0800001 0  1.28 0.0800001 0  1.32 0.0800001 0  1.36 0.08 0  1.4 0.0799999 0  1.44 0.0799999 0  1.48 0.0799999 0  1.52 0.0799999 0  1.56 0.08 0  1.6 0.0800001 0  1.64 0.0800001 0  1.68 0.08 0  1.72 0.0799999 0  1.76 0.0799999 0  1.8 0.0799999 0  1.84 0.0799999 0  1.88 0.08 0  1.92 0.0800001 0  1.96 0.0800001 0  2 0.0800001 0  2.04 0.08 0  2.08 0.0799999 0  2.12 0.0799999 0  2.16 0.08 0  2.2 0.08 0  2.24 0.0799999 0  2.28 0.0799998 0  2.32 0.0799999 0  2.36 0.0799999 0  2.4 0.08 0  0.0401262 0.120184 0  0 0.12 0  0.0803378 0.120435 0  0.120779 0.12078 0  0.161485 0.120859 0  0.199996 0.117814 0  0.238503 0.120866 0  0.279195 0.120798 0  0.319616 0.120473 0  0.359799 0.120256 0  0.39988 0.120136 0  0.439921 0.120073 0  0.479944 0.120039 0  0.519958 0.120022 0  0.5599690000000001 0.120012 0  0.599976 0.120007 0  0.639981 0.120004 0  0.679985 0.120002 0  0.719987 0.120002 0  0.7599900000000001 0.120001 0  0.799991 0.12 0  0.839993 0.12 0  0.879995 0.12 0  0.919996 0.12 0  0.959998 0.119999 0  1 0.119999 0  1.04 0.119999 0  1.08 0.119999 0  1.12 0.12 0  1.16 0.12 0  1.2 0.12 0  1.24 0.12 0  1.28 0.12 0  1.32 0.12 0  1.36 0.12 0  1.4 0.12 0  1.44 0.12 0  1.48 0.12 0  1.52 0.12 0  1.56 0.12 0  1.6 0.12 0  1.64 0.12 0  1.68 0.12 0  1.72 0.12 0  1.76 0.12 0  1.8 0.12 0  1.84 0.12 0  1.88 0.12 0  1.92 0.12 0  1.96 0.12 0  2 0.12 0  2.04 0.12 0  2.08 0.12 0  2.12 0.12 0  2.16 0.12 0  2.2 0.12 0  2.24 0.12 0  2.28 0.12 0  2.32 0.12 0  2.36 0.12 0  2.4 0.12 0  0.0400582 0.160177 0  0 0.16 0  0.0801954 0.160525 0  0.120857 0.161488 0  0.164645 0.164645 0  0.2 0.15 0  0.235355 0.164645 0  0.279119 0.161498 0  0.319759 0.16055 0  0.359874 0.160228 0  0.399906 0.160104 0  0.439925 0.160051 0  0.479941 0.160027 0  0.519954 0.160014 0  0.559964 0.160008 0  0.5999719999999999 0.160005 0  0.639978 0.160003 0  0.679982 0.160002 0  0.719985 0.160001 0  0.759988 0.160001 0  0.79999 0.16 0  0.839992 0.16 0  0.8799940000000001 0.16 0  0.919996 0.159999 0  0.959998 0.159999 0  1 0.159999 0  1.04 0.159999 0  1.08 0.159999 0  1.12 0.16 0  1.16 0.16 0  1.2 0.16 0  1.24 0.16 0  1.28 0.16 0  1.32 0.16 0  1.36 0.16 0  1.4 0.16 0  1.44 0.16 0  1.48 0.16 0  1.52 0.16 0  1.56 0.16 0  1.6 0.16 0  1.64 0.16 0  1.68 0.16 0  1.72 0.16 0  1.76 0.16 0  1.8 0.16 0  1.84 0.16 0  1.88 0.16 0  1.92 0.16 0  1.96 0.16 0  2 0.16 0  2.04 0.16 0  2.08 0.16 0  2.12 0.16 0  2.16 0.16 0  2.2 0.16 0  2.24 0.16 0  2.28 0.16 0  2.32 0.16 0  2.36 0.16 0  2.4 0.16 0  0.0399111 0.2 0  0 0.2 0  0.0795281 0.2 0  0.117811 0.2 0  0.15 0.2 0  0.282167 0.2 0  0.25 0.2 0  0.320429 0.2 0  0.36003 0.200001 0  0.399944 0.200001 0  0.439934 0.200001 0  0.479942 0.200001 0  0.519953 0.200001 0  0.559963 0.200001 0  0.59997 0.200001 0  0.639976 0.200001 0  0.6799809999999999 0.200001 0  0.719984 0.200001 0  0.759987 0.200001 0  0.799989 0.2 0  0.839991 0.2 0  0.879993 0.2 0  0.919996 0.199999 0  0.959998 0.199999 0  1 0.199999 0  1.04 0.199999 0  1.08 0.199999 0  1.12 0.2 0  1.16 0.2 0  1.2 0.2 0  1.24 0.2 0  1.28 0.2 0  1.32 0.2 0  1.36 0.2 0  1.4 0.2 0  1.44 0.2 0  1.48 0.2 0  1.52 0.2 0  1.56 0.2 0  1.6 0.2 0  1.64 0.2 0  1.68 0.2 0  1.72 0.2 0  1.76 0.2 0  1.8 0.2 0  1.84 0.2 0  1.88 0.2 0  1.92 0.2 0  1.96 0.2 0  2 0.2 0  2.04 0.2 0  2.08 0.2 0  2.12 0.2 0  2.16 0.2 0  2.2 0.2 0  2.24 0.2 0  2.28 0.2 0  2.32 0.2 0  2.36 0.2 0  2.4 0.2 0  0.0400582 0.239823 0  0 0.24 0  0.0801953 0.239475 0  0.120857 0.238513 0  0.164645 0.235355 0  0.279119 0.238502 0  0.235355 0.235355 0  0.319759 0.239451 0  0.359873 0.239774 0  0.399905 0.239898 0  0.439925 0.239951 0  0.479941 0.239976 0  0.519954 0.239988 0  0.559964 0.239994 0  0.5999719999999999 0.239997 0  0.639977 0.239999 0  0.679982 0.24 0  0.719985 0.24 0  0.759987 0.24 0  0.79999 0.24 0  0.839992 0.24 0  0.8799940000000001 0.24 0  0.919996 0.239999 0  0.959998 0.239999 0  1 0.239999 0  1.04 0.239999 0  1.08 0.239999 0  1.12 0.24 0  1.16 0.24 0  1.2 0.24 0  1.24 0.24 0  1.28 0.24 0  1.32 0.24 0  1.36 0.24 0  1.4 0.24 0  1.44 0.24 0  1.48 0.24 0  1.52 0.24 0  1.56 0.24 0  1.6 0.24 0  1.64 0.24 0  1.68 0.24 0  1.72 0.24 0  1.76 0.24 0  1.8 0.24 0  1.84 0.24 0  1.88 0.24 0  1.92 0.24 0  1.96 0.24 0  2 0.24 0  2.04 0.24 0  2.08 0.24 0  2.12 0.24 0  2.16 0.24 0  2.2 0.24 0  2.24 0.24 0  2.28 0.24 0  2.32 0.24 0  2.36 0.24 0  2.4 0.24 0  0.0401261 0.279816 0  0 0.28 0  0.0803376 0.279565 0  0.120778 0.27922 0  0.161485 0.279141 0  0.2 0.25 0  0.199996 0.282186 0  0.238503 0.279135 0  0.279195 0.279202 0  0.319616 0.279528 0  0.359799 0.279745 0  0.39988 0.279865 0  0.43992 0.279929 0  0.479944 0.279962 0  0.519958 0.27998 0  0.559968 0.27999 0  0.599976 0.279995 0  0.639981 0.279998 0  0.679984 0.279999 0  0.719987 0.28 0  0.759989 0.28 0  0.799991 0.28 0  0.839993 0.28 0  0.879995 0.28 0  0.919997 0.279999 0  0.959998 0.279999 0  1 0.279999 0  1.04 0.279999 0  1.08 0.28 0  1.12 0.28 0  1.16 0.28 0  1.2 0.28 0  1.24 0.28 0  1.28 0.28 0  1.32 0.28 0  1.36 0.28 0  1.4 0.28 0  1.44 0.28 0  1.48 0.28 0  1.52 0.28 0  1.56 0.28 0  1.6 0.28 0  1.64 0.28 0  1.68 0.28 0  1.72 0.28 0  1.76 0.28 0  1.8 0.28 0  1.84 0.28 0  1.88 0.28 0  1.92 0.28 0  1.96 0.28 0  2 0.28 0  2.04 0.28 0  2.08 0.28 0  2.12 0.28 0  2.16 0.28 0  2.2 0.28 0  2.24 0.28 0  2.28 0.28 0  2.32 0.28 0  2.36 0.28 0  2.4 0.28 0  0.0401086 0.319877 0  0 0.32 0  0.08025060000000001 0.319748 0  0.120433 0.319661 0  0.160522 0.319802 0  0.199995 0.320467 0  0.239464 0.319795 0  0.279543 0.319643 0  0.31971 0.319714 0  0.359828 0.319813 0  0.399895 0.319889 0  0.439933 0.319937 0  0.479955 0.319965 0  0.519968 0.319981 0  0.559976 0.31999 0  0.599982 0.319995 0  0.6399860000000001 0.319998 0  0.679989 0.319999 0  0.719991 0.32 0  0.759992 0.32 0  0.799994 0.32 0  0.839995 0.32 0  0.879996 0.32 0  0.919998 0.32 0  0.959999 0.32 0  1 0.32 0  1.04 0.32 0  1.08 0.32 0  1.12 0.32 0  1.16 0.32 0  1.2 0.32 0  1.24 0.32 0  1.28 0.32 0  1.32 0.32 0  1.36 0.32 0  1.4 0.32 0  1.44 0.32 0  1.48 0.32 0  1.52 0.32 0  1.56 0.32 0  1.6 0.32 0  1.64 0.32 0  1.68 0.32 0  1.72 0.32 0  1.76 0.32 0  1.8 0.32 0  1.84 0.32 0  1.88 0.32 0  1.92 0.32 0  1.96 0.32 0  2 0.32 0  2.04 0.32 0  2.08 0.32 0  2.12 0.32 0  2.16 0.32 0  2.2 0.32 0  2.24 0.32 0  2.28 0.32 0  2.32 0.32 0  2.36 0.32 0  2.4 0.32 0  0.0400579 0.359942 0  0 0.36 0  0.0801229 0.359891 0  0.120183 0.359873 0  0.160175 0.35994 0  0.199997 0.360086 0  0.239816 0.359936 0  0.279804 0.359862 0  0.319855 0.359871 0  0.359906 0.359906 0  0.399941 0.35994 0  0.439962 0.359964 0  0.479975 0.359979 0  0.5199820000000001 0.359989 0  0.559987 0.359994 0  0.59999 0.359997 0  0.639993 0.359998 0  0.679994 0.359999 0  0.7199950000000001 0.36 0  0.759996 0.36 0  0.799997 0.36 0  0.839997 0.36 0  0.8799979999999999 0.36 0  0
[...]
<PointData  Scalars="f_10391-2"> 
<DataArray  type="Float64"  Name="f_10391-2"  format="ascii">7.1450350490326502e-05  7.1961928786266061e-05  8.0678546347254522e-05  8.0478680357711749e-05  6.7852095546761448e-05  7.7084335752091327e-05  5.6537608364724026e-05  6.4368261810863561e-05  4.0787565354723107e-05  4.5687915015176067e-05  2.5972895760669474e-05  2.8433380855596271e-05  1.4970279607028954e-05  1.6019035176544041e-05  8.0087797380223069e-06  8.4140880586366064e-06  4.0333774035001845e-06  4.1824423249564262e-06  1.9223257991505066e-06  1.9741937458357316e-06  8.6754840599944000e-07  8.8348752709594179e-07  3.7027908657798815e-07  3.7380506181644035e-07  1.4921783120774187e-07  1.4913618314838590e-07  5.6690479225408309e-08  5.5988046115134065e-08  2.0278813855989264e-08  1.9743962572494818e-08  6.8227260695563236e-09  6.5298372661189003e-09  2.1570367788890141e-09  2.0222217236189333e-09  6.4027721899855571e-10  5.8552089035114344e-10  1.7829220260315625e-10  1.5820425442552600e-10  4.6535120545675368e-11  3.9800390253810050e-11  1.1373977409565503e-11  9.2965754699124929e-12  2.6005195580786272e-12  2.0086246844381181e-12  5.5548123244506210e-13  3.9924723847431825e-13  1.1066743834666254e-13  7.2412255991537657e-14  2.0517572538083225e-14  1.1823747223945482e-14  3.5285745374741715e-15  1.6945016817252537e-15  5.6017620872419109e-16  2.0137813168720567e-16  8.1461907464545175e-17  1.6495386305370173e-17  1.0710038281264546e-17  -1.3945539565370701e-19  1.2420556334401161e-18  -4.1895621600648202e-19  1.2032762057783558e-19  -1.1032041086598591e-19  8.2315433028953299e-21  -2.0246062522605122e-20  2.4974967526623868e-23  -2.9725970625425399e-21  -1.1266030094188560e-22  -3.5238763014108288e-22  -2.3418214960938182e-23  -3.0831227621074242e-23  -3.0764500198703959e-24  -1.0649834423990427e-24  -2.6228871726933445e-25  2.7605267518581357e-25  -3.7485747500576591e-27  7.8187765823130022e-26  3.7409169969143231e-27  1.2360526512175563e-26  8.7861793685543265e-28  1.3479514866456721e-27  1.2548516303721933e-28  7.8680756467186629e-29  1.1858286386320794e-29  -6.4945753946894344e-30  3.7932806647792755e-31  -2.7973471886365721e-30  -1.2250212713294232e-31  -4.9197043200964587e-31  -3.2281915918410360e-32  -5.6968772982647980e-32  -4.6676994597554649e-33  -3.6101909275373725e-33  -4.2246946318369467e-34  2.1921557750074769e-34  -8.6525975519494546e-36  1.0740583713577135e-34  5.1965284141709790e-36  1.8423076248539796e-35  1.1703722619761278e-36  1.9470691489937177e-36  1.4532997890445017e-37  8.5658444361941148e-38  9.5102593664202014e-39  -1.4712245771334715e-38  -4.3829979994922984e-40  -4.1878592083623796e-39  -2.2179887687556876e-40  -5.5963938180963246e-40  -3.3306262933793219e-41  -3.9612040228736342e-41  -2.7013280911936480e-42  1.0803771014773362e-42  -1.0082622282984318e-44  7.4172971432312980e-43  3.3006167945010577e-44  1.0956047953358841e-43  5.3817182099242989e-45  8.2166770029952484e-45  4.6663829846531460e-46  -2.9138268784507513e-47  3.1627158774137213e-47  -1.8761569763778933e-46  1.0281489875678297e-04  1.0130088268881642e-04  1.0166951174326328e-04  8.6366863224139921e-05  5.9895946766038501e-05  3.5472324694314860e-05  1.8965523441163242e-05  9.6061673916391808e-06  4.6875362094203545e-06  2.1935863966446224e-06  9.7676370995923059e-07  4.1147636842663174e-07  1.6338026088239158e-07  6.1001050120934455e-08  2.1380108771238340e-08  7.0237210834134945e-09  2.1597694176705330e-09  6.2069385020932058e-10  1.6644105549576009e-10  4.1566494075678719e-11  9.6456272319890190e-12  2.0745270093892709e-12  4.1220443437204634e-13  7.5376502737377610e-14  1.2625521456459219e-14  1.9271850017588780e-15  2.6685800556060462e-16  3.3544307828282130e-17  3.9089485458616123e-18  4.5578513352043623e-19  6.1790183545041475e-20  1.0591792404347922e-20  2.0457947817497435e-21  3.8381332594831964e-22  6.4923821641903922e-23  9.5729002782455451e-24  1.1877775776093025e-24  1.1380393623338295e-25  5.6549674678681922e-27  -6.9984187620314085e-28  -2.5770863787686338e-28  -4.5443259259727284e-29  -5.5540102462114632e-30  -4.2163932583421436e-31  6.1123836202345214e-33  8.8436288873992766e-33  1.8113701033863815e-33  2.3355229971936279e-34  1.7984263870616542e-35  -2.6392501936873408e-37  -3.6024659070853337e-37  -6.8365760992538923e-38  -7.6090996293542058e-39  -3.7268741808504219e-40  4.8749941008872304e-41  1.4520710027899055e-41  1.8440722271823515e-42  1.0843231817298460e-43  -7.1924533879090963e-45  -2.4993132451528182e-45  -5.3598638353678323e-46  1.2790554043594506e-04  1.2537237618643306e-04  1.2934768421815469e-04  1.1356183460794304e-04  7.9585878297902470e-05  4.4342107670125891e-05  2.2022523463220842e-05  1.0754830313284998e-05  5.2224073608642410e-06  2.4508385113391299e-06  1.0932712021004695e-06  4.6014870988662716e-07  1.8215322138585290e-07  6.7705602589506221e-08  2.3599950047569136e-08  7.7060263604952831e-09  2.3540827676147638e-09  6.7181851804967095e-10  1.7882145359752869e-10  4.4303503666652021e-11  1.0194546993826207e-11  2.1725995072429198e-12  4.2738968471663759e-13  7.7282007462468631e-14  1.2772555634322465e-14  1.9147299024278688e-15  2.5745040864474229e-16  3.0475181956344893e-17  3.0631193121195354e-18  2.3711858913976147e-19  7.9629786893515447e-21  -1.8982541092999943e-21  -6.5244219831194649e-22  -1.5407670486219649e-22  -3.3409683080588254e-23  -6.8115512959508895e-24  -1.2775076997087590e-24  -2.1543641306652933e-25  -3.1960090222669093e-26  -4.0315687821728299e-27  -3.9808552304344295e-28  -2.1568328895319407e-29  2.1732444055943733e-30  8.9427486546761119e-31  1.6510055575140254e-31  2.1165413459709406e-32  1.7572905969781192e-33  8.1856797375999593e-36  -2.9745906776840268e-35  -6.5903289044223682e-36  -8.8142441121810348e-37  -6.9936544270130100e-38  7.5755106463899120e-40  1.3275602728617811e-39  2.4597554851844566e-40  2.5083702331493325e-41  7.1676362912404323e-43  -2.5872478901585687e-43  -5.4776909020668967e-44  -5.2023752670902578e-45  -7.8802257613174655e-48  1.4586613410171227e-04  1.4344697554956226e-04  1.4762709607951706e-04  1.3519737374590390e-04  1.0414270712157225e-04  4.9287011872671050e-05  2.0394121527721749e-05  1.0583549121228833e-05  5.4206526576220908e-06  2.6169519520207039e-06  1.1811448120242454e-06  4.9852016881868791e-07  1.9698068426355695e-07  7.2905773551571221e-08  2.5271426596811380e-08  8.1979079570377300e-09  2.4859206898356123e-09  7.0361752600100035e-10  1.8553940260762130e-10  4.5478169431960744e-11  1.0334147099395705e-11  2.1695214029650970e-12  4.1896168561994896e-13  7.3983385015594663e-14  1.1844638135064119e-14  1.6962585757408084e-15  2.1220014323526932e-16  2.2035937942581845e-17  1.6305171141554302e-18  1.6147745859783242e-20  -2.2197867813119640e-20  -5.1852389743051587e-21  -8.0127554326644748e-22  -9.4759740331563259e-23  -7.3002523682839366e-24  3.3164462240033663e-25  3.2294235828491364e-25  9.7452491941075109e-26  2.2469024006112796e-26  4.4084915866106892e-27  7.5425768502772628e-28  1.1217186613268824e-28  1.4103851406470220e-29  1.3776279484545071e-30  7.0560965746205463e-32  -8.7163152525871470e-33  -3.3359131319941618e-33  -6.0956561599348996e-34  -7.7822488793775038e-35  -6.3790416395501080e-36  1.9648574215931238e-39  1.1658357901538537e-37  2.5127952838796261e-38  3.2233431569103549e-39  2.1977247346902452e-40  -1.2434502326313243e-41  -6.2933323381045838e-42  -9.9722137127250012e-43  -8.0012667829974553e-44  2.1014940472457001e-45  3.4807125124221910e-45  1.5313192248049497e-04  1.5068497888853219e-04  1.5441495554259789e-04  1.4498036070150535e-04  1.3069120490239079e-04  9.3738944404077035e-06  1.3668080624726173e-05  5.3270540502693948e-06  2.6596107209281548e-06  1.2116268695395514e-06  5.1165481710139462e-07  2.0156801801903040e-07  7.4255537532775850e-08  2.5590914938512078e-08  8.2460930114883638e-09  2.4811328108173508e-09  6.9589295467846321e-10  1.8155030626894740e-10  4.3935554829257254e-11  9.8303934349216631e-12  2.0247164521923431e-12  3.8166376248807683e-13  6.5299841380623626e-14  1.0013499176490461e-14  1.3466952569661672e-15  1.5211405098654682e-16  1.2860802223232989e-17  4.2482083095491472e-19  -1.0840585904103358e-19  -2.8583542358402215e-20  -3.9637054236141669e-21  -2.9243849063155411e-22  2.0617568401695600e-23  1.2695841056808248e-23  2.9794096823786566e-24  5.1576143070350532e-25  6.9874721370545950e-26  6.3013835774572162e-27  -1.4389011105674874e-28  -2.4018647599068131e-28  -7.2064771509962997e-29  -1.5558694690738915e-29  -2.7583126959065907e-30  -4.1263037030181891e-31  -5.1134910176587335e-32  -4.7854409522377816e-33  -1.9883682396849562e-34  4.1615233131874815e-35  1.3447252586870549e-35  2.3523552444909487e-36  2.9110349824270083e-37  2.2266786989952178e-38  -4.8763229019465010e-40  -5.3634278547622544e-40  -1.0938561822351135e-40  -1.3533992559315807e-41  -8.1289730039644964e-43  8.2648475522949534e-44  3.1731454305152493e-44  9.6428880310229420e-45  1.4742810867085737e-04  1.4426662219015716e-04  1.4799539591089686e-04  1.3231162552487043e-04  1.0127027412234141e-04  1.0668175337265589e-05  2.0669802094799587e-05  5.4852210774120558e-06  2.6376386833679022e-06  1.1818092187824848e-06  4.9457582589409417e-07  1.9362474793857905e-07  7.0937580090059410e-08  2.4307621677172292e-08  7.7810367383907249e-09  2.3229983752675316e-09  6.4537173492303662e-10  1.6642188852148026e-10  3.9701784909904960e-11  8.7249244625302330e-12  1.7566590349493938e-12  3.2153107498882721e-13  5.2888490037952032e-14  7.6714878746650401e-15  9.4692567574566345e-16  9.1453993786178894e-17  4.9578494182540865e-18  -3.8555078608063371e-19  -1.5305991849461486e-19  -2.3113065720207254e-20  -1.6795887993766245e-21  1.5103013934153106e-22  7.7801126541309384e-23  1.5920503340659454e-23  2.1603879700275300e-24  1.5966674313879038e-25  -1.5105412899112341e-26  -8.8981507703429900e-27  -2.1734802856660742e-27  -3.8398852342582914e-28  -5.0426315072851282e-29  -3.7151570826062714e-30  3.8082345869150754e-31  2.2404025902496323e-31  5.6210727895604229e-32  1.0468656444770754e-32  1.5746273523419271e-33  1.9058860415305858e-34  1.6793762894125033e-35  5.0552946958220060e-37  -1.8637833182036155e-37  -5.3137683040793231e-38  -9.0985035602946010e-39  -1.1520284665869854e-39  -9.7218179754541112e-41  -2.2089410723582342e-43  1.8813738423387501e-42  4.3354182570904129e-43  6.0118686685920666e-44  9.7476259959173284e-45  1.2784763703398047e-04  1.2444424637937025e-04  1.2898604839360750e-04  1.1218020305821505e-04  7.8882730480805816e-05  5.0486319079692414e-05  4.3385721019344360e-05  2.2266628251229662e-05  1.0866186760208416e-05  5.2705700789915911e-06  2.4564232005069227e-06  1.0838049758593330e-06  4.4994078432318055e-07  1.7525146474916329e-07  6.3927403268717848e-08  2.1800065493961677e-08  6.9366368060472234e-09  2.0550916893855658e-09  5.6540801220467129e-10  1.4398829027458213e-10  3.3805547276400850e-11  7.2786986852258173e-12  1.4269463885640677e-12  2.5206115746360931e-13  3.9461836226816841e-14  5.3165370644246766e-15  5.7829533007839759e-16  4.1537856741686004e-17  -4.8633697049453688e-19  -7.5616806581297887e-19  -1.3629003369804594e-19  -1.1939102125432308e-20  5.5360341383427991e-22  4.2462677578564519e-22  8.9247877380137579e-23  1.1368266556603584e-23  5.6987707953286487e-25  -1.5509555515316375e-25  -5.7179897773629877e-26  -1.1296033262008195e-26  -1.5072398285319832e-27  -9.5440360473488319e-29  1.7716839813916542e-29  8.0580544152343592e-30  1.8222589025725121e-30  2.9102808401025096e-31  3.0891331043508775e-32  5.3059741284869889e-34  -7.0935402429399216e-34  -2.1331303560253058e-34  -4.0803320312000134e-35  -5.9264487524600619e-36  -6.5895207690950839e-37  -4.9372129767192264e-38  -4.3876566055641144e-40  6.4486174775580164e-40  1.4645728761247950e-40  2.3212785170160014e-41  3.1023314141492251e-42  3.4286998106984621e-43  2.3344642263883172e-44  -1.7136556485339150e-45  1.0022454581988835e-04  9.8421809926617715e-05  9.9993717421120127e-05  8.6564882916749172e-05  6.0786784978781070e-05  3.5499475494460687e-05  1.9058952310921811e-05  9.6001383104172366e-06  4.6657032877940864e-06  2.1655734585451429e-06  9.5189578241079107e-07  3.9405839184082616e-07  1.5309056501352133e-07  5.5668720335455630e-08  1.8902820633630004e-08  5.9791353753846016e-09  1.7570843370275192e-09  4.7819308969828597e-10  1.2005297858887268e-10  2.7665138884566424e-11  5.8117643824666714e-12  1.1024192951862649e-12  1.8603142668072128e-13  2.7222149976135904e-14  3.2802695980509227e-15  2.8198574308636110e-16  5.7570385564053882e-18  -3.5637162958595188e-18  -8.0033343248417357e-19  -8.7062930592725902e-20  -2.7022493413662079e-24  2.1791532890383557e-21  5.1783576057396534e-22  6.9216282876797967e-23  3.5024891391664578e-24  -9.7230492547501068e-25  -3.4739252402274788e-25  -6.4560047768275370e-26  -7.4838541739080752e-27  -1.7850603090405802e-28  1.6984657345150061e-28  5.2590602344875124e-29  9.6381862169424291e-30  1.1178852053334383e-30  2.1018089953127959e-32  -2.8369029927029675e-32  -8.6773916006813120e-33  -1.5927165953223916e-33  -1.9030955789371689e-34  -7.3520600137637353e-36  3.1381681672468167e-36  1.0072964849881416e-36  1.8075488772223574e-37  2.2040164966573579e-38  1.5481983984644887e-39  -4.4201110762304624e-41  -3.0851407680691134e-41  -4.6397756741062850e-42  -3.2317851492885778e-43  1.3080807221163395e-44  1.5117798239069579e-44  7.7988939885290662e-05  7.8181749507782867e-05  7.5288183427712501e-05  6.4724770244310105e-05  4.6731551366017700e-05  2.8790759562398811e-05  1.6074568241592461e-05  8.3517771155383152e-06  4.1074985027465002e-06  1.9126079939617621e-06  8.4046391538226407e-07  3.4729528415575622e-07  1.3451377159200787e-07  4.8696348847219797e-08  1.6431155398460534e-08  5.1525997602750660e-09  1.4966237584613795e-09  4.0107044468184194e-10  9.8653594916462103e-11  2.2122816188962581e-11  4.4791871309892105e-12  8.0682992050941242e-13  1.2604291106817283e-13  1.6222357075851170e-14  1.4925874765945038e-15  3.3546960221140068e-17  -2.1430449458315581e-17  -5.2668495576025286e-18  -6.6348706835242889e-19  -2.2195879058043214e-20  1.1479778322166859e-20  3.2610005767225019e-21  4.7847197622181297e-22  2.9533506227821762e-23  -5.6478262687784549e-24  -2.2451994195435861e-24  -4.2188832730721905e-25  -4.7275521908086191e-26  -5.3098207175360960e-28  1.2208459112401133e-27  3.4646416985775419e-28  5.8447681011526374e-29  5.6330437094616953e-30  -2.3280795595275491e-31  -2.4024355345485667e-31  -5.9830580548309474e-32  -9.1464484662573632e-33  -6.6600145788048623e-34  1.0132369888408326e-34  4.8540476955547495e-35  1.0204297958818002e-35  1.3264659046196723e-36  6.2683078179440802e-38  -1.9726390004153228e-38  -6.6351864699854395e-39  -1.1607097479686473e-39  -1.2674228132286271e-40  -4.6640720106042068e-42  1.4496171782177602e-42  3.9286622832415328e-43  1.0908531887048120e-43  7.0106697265943195e-05  7.1797393345416382e-05  6.6318001948883991e-05  5.6615177300605464e-05  4.1418696884751453e-05  2.6100165151530480e-05  1.4789456600686677e-05  7.7601179148205776e-06  3.8276538736784985e-06  1.7796015664400470e-06  7.7855919557531277e-07  3.1953087374031251e-07  1.2261975352749509e-07  4.3853006257679206e-08  1.4565276763636272e-08  4.4751617421176940e-09  1.2658870204098293e-09  3.2763622154699756e-10  7.6926066989900058e-11  1.6177119769124218e-11  2.9833601846856577e-12  4.6334850091062274e-13  5.4788685092479864e-14  3.0673549942479094e-15  -6.1453629903385473e-16  -2.4452398275676481e-16  -4.7587418661654194e-17  -5.8112542003548790e-18  -2.4086300342961926e-19  8.6018944288889237e-20  2.6408144831473661e-20  4.0785190291034193e-21  2.9121041221305742e-22  -3.7148845630196004e-23  -1.6987907274126890e-23  -3.2479944571611807e-24  -3.5918161736577260e-25  -2.2539685213852707e-27  9.5755629940756770e-27  2.6147580227329971e-27  4.2542648159270704e-28  3.8281174843163810e-29  -2.3368917202574259e-30  -1.8260846402534908e-30  -4.3560704861793150e-31  -6.3818338866708374e-32  -3.8941002449863516e-33  9.7032202910402239e-34  3.9684963491915220e-34  7.9162667437430271e-35  9.2578339332417791e-36  6.4808053831791169e-38  -2.6402559939538914e-37  -7.2313859763250821e-38  -1.1473984366109408e-38  -9.8986775903295617e-40  4.6430151025847975e-41  3.5376827129592570e-41  7.3605815528127757e-42  9.5109560814681995e-43  1.1727985975185772e-43  </DataArray> 
</PointData> 
</Piece>
</UnstructuredGrid>
</VTKFile>