<?xml version="1.0"?>
<VTKFile type="UnstructuredGrid"  version="0.1"  >
<UnstructuredGrid>
<Piece  NumberOfPoints="670" NumberOfCells="1192">
<Points>
<DataArray  type="Float64"  NumberOfComponents="3"  format="ascii">0 0 0  0.04 -1.31357e-10 0  0.0400579 0.0400582 0  0 0.04 0  0.08 -2.62713e-10 0  0.080123 0.0401093 0  0.12 -3.9407e-10 0  0.120183 0.040127 0  0.16 -5.25427e-10 0  0.160176 0.0400597 0  0.2 -6.56784e-10 0  0.199997 0.0399142 0  0.24 -7.8814e-10 0  0.239816 0.0400642 0  0.28 -9.19497e-10 0  0.279804 0.0401377 0  0.32 -1.05085e-09 0  0.319855 0.0401297 0  0.36 -1.18221e-09 0  0.359906 0.0400945 0  0.4 -1.31357e-09 0  0.399941 0.0400609 0  0.44 -1.44492e-09 0  0.439962 0.0400367 0  0.48 -1.57628e-09 0  0.479975 0.0400214 0  0.52 -1.70764e-09 0  0.519983 0.0400122 0  0.5600000000000001 -1.83899e-09 0  0.559987 0.0400069 0  0.6 -1.97035e-09 0  0.59999 0.040004 0  0.64 -2.10171e-09 0  0.639993 0.0400023 0  0.68 -2.23306e-09 0  0.679994 0.0400013 0  0.72 -2.36442e-09 0  0.7199950000000001 0.0400008 0  0.76 -2.49578e-09 0  0.759996 0.0400005 0  0.8 -2.62713e-09 0  0.799997 0.0400002 0  0.84 -2.75849e-09 0  0.839997 0.0400001 0  0.88 -2.88985e-09 0  0.8799979999999999 0.04 0  0.92 -3.0212e-09 0  0.919999 0.0399999 0  0.96 -3.15256e-09 0  0.959999 0.0399998 0  1 -3.28392e-09 0  1 0.0399998 0  1.04 -3.41527e-09 0  1.04 0.0399998 0  1.08 -3.54663e-09 0  1.08 0.0399998 0  1.12 -3.67799e-09 0  1.12 0.0399998 0  1.16 -3.80934e-09 0  1.16 0.0399999 0  1.2 -3.9407e-09 0  1.2 0.04 0  1.24 -4.07206e-09 0  1.24 0.04 0  1.28 -4.20341e-09 0  1.28 0.0400001 0  1.32 -4.33477e-09 0  1.32 0.0400001 0  1.36 -4.46613e-09 0  1.36 0.04 0  1.4 -4.59748e-09 0  1.4 0.04 0  1.44 -4.72884e-09 0  1.44 0.04 0  1.48 -4.8602e-09 0  1.48 0.04 0  1.52 -4.99156e-09 0  1.52 0.04 0  1.56 -5.12291e-09 0  1.56 0.04 0  1.6 -5.25427e-09 0  1.6 0.0400001 0  1.64 -5.38563e-09 0  1.64 0.0400001 0  1.68 -5.51698e-09 0  1.68 0.04 0  1.72 -5.64834e-09 0  1.72 0.04 0  1.76 -5.7797e-09 0  1.76 0.04 0  1.8 -5.91105e-09 0  1.8 0.04 0  1.84 -6.04241e-09 0  1.84 0.04 0  1.88 -6.17377e-09 0  1.88 0.0400001 0  1.92 -6.30512e-09 0  1.92 0.0400001 0  1.96 -6.43648e-09 0  1.96 0.0400001 0  2 -6.56784e-09 0  2 0.0400001 0  2.04 -6.69919e-09 0  2.04 0.0400001 0  2.08 -6.83055e-09 0  2.08 0.04 0  2.12 -6.96191e-09 0  2.12 0.04 0  2.16 -7.09326e-09 0  2.16 0.0400001 0  2.2 -7.22462e-09 0  2.2 0.04 0  2.24 -7.35598e-09 0  2.24 0.04 0  2.28 -7.48733e-09 0  2.28 0.0399999 0  2.32 -7.618690000000001e-09 0  2.32 0.04 0  2.36 -7.750049999999999e-09 0  2.36 0.04 0  2.4 -7.8814e-09 0  2.4 0.04 0  0.0401088 0.0801235 0  0 0.08 0  0.0802509 0.0802518 0  0.120434 0.0803392 0  0.160522 0.0801977 0  0.199995 0.0795328 0  0.239464 0.0802049 0  0.279544 0.08035689999999999 0  0.319711 0.0802867 0  0.359828 0.08018740000000001 0  0.399896 0.0801123 0  0.439933 0.0800646 0  0.479955 0.0800365 0  0.519968 0.08002049999999999 0  0.559976 0.0800116 0  0.599982 0.0800066 0  0.6399860000000001 0.0800039 0  0.679989 0.0800023 0  0.719991 0.0800014 0  0.759992 0.0800008 0  0.799994 0.0800004 0  0.839995 0.08000019999999999 0  0.879996 0.0799999 0  0.919997 0.07999970000000001 0  0.959999 0.0799996 0  1 0.0799995 0  1.04 0.0799995 0  1.08 0.0799996 0  1.12 0.07999970000000001 0  1.16 0.0799998 0  1.2 0.08 0  1.24 0.0800001 0  1.28 0.0800001 0  1.32 0.0800001 0  1.36 0.08 0  1.4 0.0799999 0  1.44 0.0799999 0  1.48 0.0799999 0  1.52 0.0799999 0  1.56 0.08 0  1.6 0.0800001 0  1.64 0.0800001 0  1.68 0.08 0  1.72 0.0799999 0  1.76 0.0799999 0  1.8 0.0799999 0  1.84 0.0799999 0  1.88 0.08 0  1.92 0.0800001 0  1.96 0.0800001 0  2 0.0800001 0  2.04 0.08 0  2.08 0.0799999 0  2.12 0.0799999 0  2.16 0.08 0  2.2 0.08 0  2.24 0.0799999 0  2.28 0.0799998 0  2.32 0.0799999 0  2.36 0.0799999 0  2.4 0.08 0  0.0401262 0.120184 0  0 0.12 0  0.0803378 0.120435 0  0.120779 0.12078 0  0.161485 0.120859 0  0.199996 0.117814 0  0.238503 0.120866 0  0.279195 0.120798 0  0.319616 0.120473 0  0.359799 0.120256 0  0.39988 0.120136 0  0.439921 0.120073 0  0.479944 0.120039 0  0.519958 0.120022 0  0.5599690000000001 0.120012 0  0.599976 0.120007 0  0.639981 0.120004 0  0.679985 0.120002 0  0.719987 0.120002 0  0.7599900000000001 0.120001 0  0.799991 0.12 0  0.839993 0.12 0  0.879995 0.12 0  0.919996 0.12 0  0.959998 0.119999 0  1 0.119999 0  1.04 0.119999 0  1.08 0.119999 0  1.12 0.12 0  1.16 0.12 0  1.2 0.12 0  1.24 0.12 0  1.28 0.12 0  1.32 0.12 0  1.36 0.12 0  1.4 0.12 0  1.44 0.12 0  1.48 0.12 0  1.52 0.12 0  1.56 0.12 0  1.6 0.12 0  1.64 0.12 0  1.68 0.12 0  1.72 0.12 0  1.76 0.12 0  1.8 0.12 0  1.84 0.12 0  1.88 0.12 0  1.92 0.12 0  1.96 0.12 0  2 0.12 0  2.04 0.12 0  2.08 0.12 0  2.12 0.12 0  2.16 0.12 0  2.2 0.12 0  2.24 0.12 0  2.28 0.12 0  2.32 0.12 0  2.36 0.12 0  2.4 0.12 0  0.0400582 0.160177 0  0 0.16 0  0.0801954 0.160525 0  0.120857 0.161488 0  0.164645 0.164645 0  0.2 0.15 0  0.235355 0.164645 0  0.279119 0.161498 0  0.319759 0.16055 0  0.359874 0.160228 0  0.399906 0.160104 0  0.439925 0.160051 0  0.479941 0.160027 0  0.519954 0.160014 0  0.559964 0.160008 0  0.5999719999999999 0.160005 0  0.639978 0.160003 0  0.679982 0.160002 0  0.719985 0.160001 0  0.759988 0.160001 0  0.79999 0.16 0  0.839992 0.16 0  0.8799940000000001 0.16 0  0.919996 0.159999 0  0.959998 0.159999 0  1 0.159999 0  1.04 0.159999 0  1.08 0.159999 0  1.12 0.16 0  1.16 0.16 0  1.2 0.16 0  1.24 0.16 0  1.28 0.16 0  1.32 0.16 0  1.36 0.16 0  1.4 0.16 0  1.44 0.16 0  1.48 0.16 0  1.52 0.16 0  1.56 0.16 0  1.6 0.16 0  1.64 0.16 0  1.68 0.16 0  1.72 0.16 0  1.76 0.16 0  1.8 0.16 0  1.84 0.16 0  1.88 0.16 0  1.92 0.16 0  1.96 0.16 0  2 0.16 0  2.04 0.16 0  2.08 0.16 0  2.12 0.16 0  2.16 0.16 0  2.2 0.16 0  2.24 0.16 0  2.28 0.16 0  2.32 0.16 0  2.36 0.16 0  2.4 0.16 0  0.0399111 0.2 0  0 0.2 0  0.0795281 0.2 0  0.117811 0.2 0  0.15 0.2 0  0.282167 0.2 0  0.25 0.2 0  0.320429 0.2 0  0.36003 0.200001 0  0.399944 0.200001 0  0.439934 0.200001 0  0.479942 0.200001 0  0.519953 0.200001 0  0.559963 0.200001 0  0.59997 0.200001 0  0.639976 0.200001 0  0.6799809999999999 0.200001 0  0.719984 0.200001 0  0.759987 0.200001 0  0.799989 0.2 0  0.839991 0.2 0  0.879993 0.2 0  0.919996 0.199999 0  0.959998 0.199999 0  1 0.199999 0  1.04 0.199999 0  1.08 0.199999 0  1.12 0.2 0  1.16 0.2 0  1.2 0.2 0  1.24 0.2 0  1.28 0.2 0  1.32 0.2 0  1.36 0.2 0  1.4 0.2 0  1.44 0.2 0  1.48 0.2 0  1.52 0.2 0  1.56 0.2 0  1.6 0.2 0  1.64 0.2 0  1.68 0.2 0  1.72 0.2 0  1.76 0.2 0  1.8 0.2 0  1.84 0.2 0  1.88 0.2 0  1.92 0.2 0  1.96 0.2 0  2 0.2 0  2.04 0.2 0  2.08 0.2 0  2.12 0.2 0  2.16 0.2 0  2.2 0.2 0  2.24 0.2 0  2.28 0.2 0  2.32 0.2 0  2.36 0.2 0  2.4 0.2 0  0.0400582 0.239823 0  0 0.24 0  0.0801953 0.239475 0  0.120857 0.238513 0  0.164645 0.235355 0  0.279119 0.238502 0  0.235355 0.235355 0  0.319759 0.239451 0  0.359873 0.239774 0  0.399905 0.239898 0  0.439925 0.239951 0  0.479941 0.239976 0  0.519954 0.239988 0  0.559964 0.239994 0  0.5999719999999999 0.239997 0  0.639977 0.239999 0  0.679982 0.24 0  0.719985 0.24 0  0.759987 0.24 0  0.79999 0.24 0  0.839992 0.24 0  0.8799940000000001 0.24 0  0.919996 0.239999 0  0.959998 0.239999 0  1 0.239999 0  1.04 0.239999 0  1.08 0.239999 0  1.12 0.24 0  1.16 0.24 0  1.2 0.24 0  1.24 0.24 0  1.28 0.24 0  1.32 0.24 0  1.36 0.24 0  1.4 0.24 0  1.44 0.24 0  1.48 0.24 0  1.52 0.24 0  1.56 0.24 0  1.6 0.24 0  1.64 0.24 0  1.68 0.24 0  1.72 0.24 0  1.76 0.24 0  1.8 0.24 0  1.84 0.24 0  1.88 0.24 0  1.92 0.24 0  1.96 0.24 0  2 0.24 0  2.04 0.24 0  2.08 0.24 0  2.12 0.24 0  2.16 0.24 0  2.2 0.24 0  2.24 0.24 0  2.28 0.24 0  2.32 0.24 0  2.36 0.24 0  2.4 0.24 0  0.0401261 0.279816 0  0 0.28 0  0.0803376 0.279565 0  0.120778 0.27922 0  0.161485 0.279141 0  0.2 0.25 0  0.199996 0.282186 0  0.238503 0.279135 0  0.279195 0.279202 0  0.319616 0.279528 0  0.359799 0.279745 0  0.39988 0.279865 0  0.43992 0.279929 0  0.479944 0.279962 0  0.519958 0.27998 0  0.559968 0.27999 0  0.599976 0.279995 0  0.639981 0.279998 0  0.679984 0.279999 0  0.719987 0.28 0  0.759989 0.28 0  0.799991 0.28 0  0.839993 0.28 0  0.879995 0.28 0  0.919997 0.279999 0  0.959998 0.279999 0  1 0.279999 0  1.04 0.279999 0  1.08 0.28 0  1.12 0.28 0  1.16 0.28 0  1.2 0.28 0  1.24 0.28 0  1.28 0.28 0  1.32 0.28 0  1.36 0.28 0  1.4 0.28 0  1.44 0.28 0  1.48 0.28 0  1.52 0.28 0  1.56 0.28 0  1.6 0.28 0  1.64 0.28 0  1.68 0.28 0  1.72 0.28 0  1.76 0.28 0  1.8 0.28 0  1.84 0.28 0  1.88 0.28 0  1.92 0.28 0  1.96 0.28 0  2 0.28 0  2.04 0.28 0  2.08 0.28 0  2.12 0.28 0  2.16 0.28 0  2.2 0.28 0  2.24 0.28 0  2.28 0.28 0  2.32 0.28 0  2.36 0.28 0  2.4 0.28 0  0.0401086 0.319877 0  0 0.32 0  0.08025060000000001 0.319748 0  0.120433 0.319661 0  0.160522 0.319802 0  0.199995 0.320467 0  0.239464 0.319795 0  0.279543 0.319643 0  0.31971 0.319714 0  0.359828 0.319813 0  0.399895 0.319889 0  0.439933 0.319937 0  0.479955 0.319965 0  0.519968 0.319981 0  0.559976 0.31999 0  0.599982 0.319995 0  0.6399860000000001 0.319998 0  0.679989 0.319999 0  0.719991 0.32 0  0.759992 0.32 0  0.799994 0.32 0  0.839995 0.32 0  0.879996 0.32 0  0.919998 0.32 0  0.959999 0.32 0  1 0.32 0  1.04 0.32 0  1.08 0.32 0  1.12 0.32 0  1.16 0.32 0  1.2 0.32 0  1.24 0.32 0  1.28 0.32 0  1.32 0.32 0  1.36 0.32 0  1.4 0.32 0  1.44 0.32 0  1.48 0.32 0  1.52 0.32 0  1.56 0.32 0  1.6 0.32 0  1.64 0.32 0  1.68 0.32 0  1.72 0.32 0  1.76 0.32 0  1.8 0.32 0  1.84 0.32 0  1.88 0.32 0  1.92 0.32 0  1.96 0.32 0  2 0.32 0  2.04 0.32 0  2.08 0.32 0  2.12 0.32 0  2.16 0.32 0  2.2 0.32 0  2.24 0.32 0  2.28 0.32 0  2.32 0.32 0  2.36 0.32 0  2.4 0.32 0  0.0400579 0.359942 0  0 0.36 0  0.0801229 0.359891 0  0.120183 0.359873 0  0.160175 0.35994 0  0.199997 0.360086 0  0.239816 0.359936 0  0.279804 0.359862 0  0.319855 0.359871 0  0.359906 0.359906 0  0.399941 0.35994 0  0.439962 0.359964 0  0.479975 0.359979 0  0.5199820000000001 0.359989 0  0.559987 0.359994 0  0.59999 0.359997 0  0.639993 0.359998 0  0.679994 0.359999 0  0.7199950000000001 0.36 0  0.759996 0.36 0  0.799997 0.36 0  0.839997 0.36 0  0.8799979999999999 0.36 0  0
[...]
<PointData  Scalars="f_10391-2"> 
<DataArray  type="Float64"  Name="f_10391-2"  format="ascii">2.8874218041942569e-05  2.9624426187356822e-05  3.5149392327019808e-05  3.4618714971335411e-05  2.8289682320271758e-05  3.4105352795745295e-05  2.3323365699062887e-05  2.8201531964416219e-05  1.6118239226622158e-05  1.9104796826474122e-05  9.5278224148334820e-06  1.0970034691255702e-05  4.9494872294242228e-06  5.5275224738053425e-06  2.3267895938649347e-06  2.5306878995528593e-06  1.0071969065901936e-06  1.0729149276233224e-06  4.0428161850812301e-07  4.2333198415242502e-07  1.5065685890813294e-07  1.5517575569784741e-07  5.2054642174097038e-08  5.2639009381518613e-08  1.6642342976171303e-08  1.6456996602141606e-08  4.9134270166565352e-09  4.7239066715944001e-09  1.3372187771745576e-09  1.2403852904269524e-09  3.3496782579031525e-10  2.9669430407767504e-10  7.7119227780446628e-11  6.4315159313897602e-11  1.6293033348555543e-11  1.2544345097167333e-11  3.1527595455626600e-12  2.1758812806142692e-12  5.5724519562142730e-13  3.2864675807044849e-13  8.9579789377179657e-14  4.1311307892826103e-14  1.3002469252796099e-14  3.7879730852069602e-15  1.6819030280322975e-15  9.2116680449019171e-17  1.8888033077045684e-16  -5.8074420780606517e-17  1.7319497635621957e-17  -1.6908134463322664e-17  1.0535375022119575e-18  -3.0984081649630272e-18  -1.7064139953843805e-20  -4.3891870970942377e-19  -1.7254502734205521e-20  -4.8843275864303115e-20  -3.1071231202707390e-21  -3.8171652434319399e-21  -3.6021418022804215e-22  -7.0024974899625505e-23  -2.5450173671822207e-23  4.1895028623449358e-23  2.7081937734559650e-25  9.4214555291686441e-24  4.1836709576611092e-25  1.2456142766381934e-24  7.5411952394388480e-26  1.0454883713689797e-25  8.1703857930645109e-27  1.9047661380116418e-27  4.5240825808174913e-28  -1.1497605952499758e-27  -2.9098827522860397e-29  -2.3977391659240702e-28  -1.0902308678605236e-29  -2.7335163973270539e-29  -1.4531776687780458e-30  -1.5614443832840123e-30  -1.0153173148832176e-31  9.1668041833601790e-32  1.2728425400564991e-33  3.4690747553291014e-32  1.3337857944884453e-33  4.3668033544457960e-33  1.7756611063829840e-34  2.6056015578836207e-34  1.0746345241632237e-35  -1.0168968469372858e-35  -2.9575911876361312e-37  -4.0865951910359492e-36  -1.3043102914223205e-37  -4.3096338782624149e-37  -1.2167945766635854e-38  -1.5355619169037673e-38  -2.4631171940034283e-40  1.9217245284010129e-39  6.8176553863413065e-41  3.3067272060820153e-40  8.4662040916285671e-42  1.9600295139495756e-41  3.6381116267810422e-43  -2.8030501990841414e-43  -1.1505707882358549e-44  -1.2371229037466028e-43  -1.8769400038324143e-45  -6.0022029268169432e-45  -1.6378455623132683e-47  2.7998447366788601e-46  6.9358956792728435e-48  3.6377521479339208e-47  1.3375997076626709e-49  -3.9723633122385363e-49  -3.1162236751732570e-50  -1.8039472342310019e-49  -4.2252393314720807e-52  4.5491785963172904e-52  1.8503960353383579e-52  9.7833211206582853e-52  1.9128578133299374e-54  1.1826159260178731e-54  -2.8255736434381745e-54  -1.1503924999042909e-53  4.9722514260290625e-05  4.8293866069281558e-05  5.0285853310221952e-05  4.2515345717683507e-05  2.8115433275166180e-05  1.5267147699367390e-05  7.2380719986586558e-06  3.1686986341130558e-06  1.3119582395333679e-06  5.1203905982647149e-07  1.8663902649233064e-07  6.3041763691833791e-08  1.9621259153120201e-08  5.6047095173465478e-09  1.4644089357175747e-09  3.4886798909221348e-10  7.5525413773949167e-11  1.4799133510220053e-11  2.6121745723866808e-12  4.1291211949648341e-13  5.8062383125680146e-14  7.2300143804771411e-15  8.0375571975490097e-16  8.4477228000633589e-17  9.9208722184716680e-18  1.5504399610260562e-18  2.9218457818013169e-19  5.4015901088419010e-20  8.8423286353350885e-21  1.2300889460962699e-21  1.3896944230533065e-22  1.1176898806674153e-23  2.2012538210126018e-25  -1.2742917932796361e-25  -2.9479507056293343e-26  -3.9658753302857035e-27  -3.3374248203713867e-28  -5.1748151106956557e-30  3.8714865497324565e-30  7.7434305312235644e-31  8.2982917108827716e-32  3.8902689805344280e-33  -4.0314712818094679e-34  -1.0788079262811548e-34  -1.1279376358958424e-35  -4.2970019598983908e-37  5.4872977712689610e-38  1.0735054309699926e-38  7.8881025600733624e-40  6.1427948056309518e-42  -3.9273578158752647e-42  -2.4657780733052112e-43  1.5825931201378092e-44  2.9869528691435836e-45  9.1005605367325301e-47  -1.2182637619794697e-47  -9.8335970980901341e-49  3.3457700919212688e-50  6.0150377654152462e-51  -5.1420362683537279e-53  -6.4644341046753497e-53  6.7163880063306105e-05  6.4879444439201614e-05  6.9731042551290128e-05  6.1362557272683687e-05  4.1260262003811633e-05  2.0949677165592896e-05  9.1619446597440234e-06  3.8339596729342226e-06  1.5767618684585216e-06  6.1797476596963980e-07  2.2604637931255527e-07  7.6360285334337991e-08  2.3694791403721156e-08  6.7313607555500014e-09  1.7456874217586578e-09  4.1212171187074318e-10  8.8259321758476105e-11  1.7070064135600293e-11  2.9637992130722292e-12  4.5779794383503981e-13  6.2022196588327774e-14  7.1753830605258867e-15  6.6634392530699723e-16  3.9685699622251670e-17  -1.2094314790077449e-18  -8.9376501154157715e-19  -1.9943476219122418e-19  -3.7023873521894391e-20  -6.6023724061134554e-21  -1.1476388016170250e-21  -1.8842454638805053e-22  -2.8108510773398964e-23  -3.6588913869127851e-24  -3.8996613160581846e-25  -2.8344442516976856e-26  8.6260494555180836e-29  4.7166279282498759e-28  9.6561231490256527e-29  1.2169222001670352e-29  9.1810365401935795e-31  -5.1389745278455705e-33  -1.3880241163955338e-32  -2.3401504132059456e-33  -2.0944902729503265e-34  -4.6112135328860724e-36  1.6861952978984548e-36  2.8292579051795576e-37  2.0391208522335565e-38  -1.2752219786644786e-41  -1.4761917143572526e-40  -1.0812500087769091e-41  5.2332250106251572e-43  1.4845421937264280e-43  8.4858527664170658e-45  -4.4210336350234656e-46  -8.7897917822792072e-47  -2.5242112245544134e-48  3.7529531629382917e-49  2.8547730229242860e-50  -1.0258815447468918e-51  -3.4743743180448563e-52  8.0158239271710952e-05  7.7776195637301073e-05  8.3223459797811613e-05  7.6857473894054531e-05  5.7761425865271668e-05  2.4336538624968827e-05  8.6250076435501194e-06  3.8484134442912459e-06  1.6900618328253738e-06  6.8738175590463740e-07  2.5548997334799721e-07  8.6619398580559854e-08  2.6780966591740330e-08  7.5451615533603932e-09  1.9335877967845292e-09  4.4938295403313938e-10  9.4306831360465350e-11  1.7757825771251335e-11  2.9709258931736938e-12  4.3440157724863587e-13  5.3782967963744983e-14  5.2199744953367839e-15  2.9193234700332841e-16  -2.0693634232824498e-17  -9.2977449292664378e-18  -1.6917703386549732e-18  -2.1605856849490077e-19  -1.8583511853720242e-20  -1.2683713805620160e-22  3.9663143022200121e-22  1.1704428773603528e-22  2.4578663874965349e-23  4.3655835278293666e-24  6.8276799687055844e-25  9.4195458849861774e-26  1.1177134133713711e-26  1.0558451120498957e-27  5.7795212763989046e-29  -4.2065274418822927e-30  -1.8067008077755047e-30  -3.0551392305904141e-31  -3.2929490274932693e-32  -1.7432447984519159e-33  1.4864106080935148e-34  4.8428809453494635e-35  5.8639766889089651e-36  3.0644648453468666e-37  -2.1118236914905591e-38  -5.5565445421863127e-39  -3.8317364950215758e-40  2.0502814391919414e-41  6.7832853476322448e-42  5.8384661705488795e-43  4.1532530271465412e-45  -3.7828248348171114e-45  -3.0402204825557349e-46  4.5336829269147048e-48  2.0845337111659954e-48  7.1241648446958332e-50  -8.7962483147384641e-51  -1.3622920218282873e-51  8.5453353275160885e-05  8.2989170346238852e-05  8.8236757119418931e-05  8.3630660711826922e-05  7.4855556889594335e-05  3.3257887967855744e-06  5.3509918838437867e-06  1.6617831672171879e-06  7.0527777250069430e-07  2.6500493856749637e-07  8.9677208648544623e-08  2.7502669496189447e-08  7.6538297022531065e-09  1.9297514300203431e-09  4.3917101709556661e-10  8.9656096116939039e-11  1.6261603541162965e-11  2.5791311701867265e-12  3.4713669310259903e-13  3.7029160549345103e-14  2.4585608033263437e-15  -8.8091468700436300e-17  -6.0487166467552211e-17  -1.1194093856609978e-17  -1.2622621261135330e-18  -5.3988085524793653e-20  1.4956557065755905e-20  4.9490222648667747e-21  9.1363248737658291e-22  1.2004094638125104e-22  9.5739012467451754e-24  -4.1252855122332795e-25  -3.5912833556577933e-25  -9.0529872804895686e-26  -1.6622646297505507e-26  -2.5040024480651950e-27  -3.1737274726527965e-28  -3.2963460009245033e-29  -2.4354052622381484e-30  -2.3604607959675936e-32  3.2595178435644610e-32  7.1196780167492893e-33  9.2083343184393165e-34  6.8354411400817527e-35  -1.0861608838749586e-36  -1.1411683267345885e-36  -1.6658205980356374e-37  -9.9035498190992259e-39  7.6191106005339954e-40  2.3992073033795844e-40  2.5108074688054324e-41  8.7360158844345512e-43  -1.1029543484904341e-43  -1.6945522085916783e-44  -6.7048683869196799e-46  5.5819025952484899e-47  6.9704914901288274e-48  -1.0710755600588235e-51  -4.0716466438244457e-50  -2.7909504498343956e-51  8.1193719256321121e-05  7.8295513980014021e-05  8.3450622318976810e-05  7.4885019839829282e-05  5.5759250932841759e-05  3.9018648066935195e-06  8.7660026906944389e-06  1.7198194983445481e-06  6.9303408807810148e-07  2.5345557841481188e-07  8.4196429247841764e-08  2.5403373973504111e-08  6.9475129871667079e-09  1.7156405114356272e-09  3.8020431186051961e-10  7.4911365037910653e-11  1.2923483595204049e-11  1.8998646246363594e-12  2.2433458790449292e-13  1.7690619691682781e-14  -8.3046055894708052e-17  -3.3596767597393629e-16  -6.9148175379080053e-17  -8.0121172841665445e-18  -2.8261794390470795e-19  1.1651481804657817e-19  3.4229400825528433e-20  5.5249981477863000e-21  5.3227670542844575e-22  -3.8020303748611102e-24  -1.4593348942868713e-23  -3.7141078862452490e-24  -5.9974143964581125e-25  -6.2799494532092132e-26  -1.3586122123311982e-27  1.2078496281880135e-27  3.5290939835547325e-28  6.5123349914824247e-29  9.3099425085406424e-30  1.0700025079583018e-30  9.3909924669321738e-32  4.2828756831514934e-33  -5.1696321149807365e-34  -1.7869451988575041e-34  -2.9149302501055196e-35  -3.0048161786971181e-36  -1.1565768367484554e-37  2.5417433813128904e-38  6.2440250769046638e-39  7.0869953343892674e-40  3.6401468084669378e-41  -2.0258655992934702e-42  -5.4686570481286274e-43  -4.0367591798869474e-44  2.2357179306911121e-46  2.7560943311733789e-46  1.6269153881253876e-47  -7.1668835676777246e-49  -1.1939069332733688e-49  1.1108844843802753e-51  6.7101892740586663e-05  6.4275367413985999e-05  6.9437332859887622e-05  6.0425061116543540e-05  4.0796415478378312e-05  2.5055507829479867e-05  2.0291410428483682e-05  9.2474686826853535e-06  3.8555203040280518e-06  1.5795839314277520e-06  6.0949206725974527e-07  2.1724340313774711e-07  7.0861112765584890e-08  2.1024377374477026e-08  5.6427630689055936e-09  1.3606069382962211e-09  2.9197833098289862e-10  5.4968672091892671e-11  8.8559231379886374e-12  1.1603228928105210e-12  1.0717591510680693e-13  2.2517480616230907e-15  -1.5717855664527746e-15  -3.7994204728314617e-16  -4.7737531191368543e-17  -1.8059958158584001e-18  7.4304778662484065e-19  2.2127110109565486e-19  3.4880441072801326e-20  2.9594781973039118e-21  -1.5467388431238659e-22  -1.1435994447760451e-22  -2.4616497497354840e-23  -3.1928201871817704e-24  -1.5399324335361025e-25  4.6328297959057866e-26  1.5977025541088889e-26  2.8688385617842545e-27  3.2149722740609254e-28  1.0595193718202902e-29  -4.8528095608190664e-30  -1.4197751554026305e-30  -2.4363990360830450e-31  -3.1342520529446646e-32  -3.1907616314801895e-33  -2.4847760138543167e-34  -9.3027323398510994e-36  1.7516096651221480e-36  5.6942866300189861e-37  9.8199130542118784e-38  1.1273079178996324e-38  7.1570253173943072e-40  -1.8318538328454589e-41  -9.8523429205792881e-42  -1.0174726866883184e-42  -2.4646057005199475e-44  5.5678273251711327e-45  6.1148580578646620e-46  2.6077973248248201e-48  -3.8712606127082550e-48  -1.9899718950520595e-49  3.5053582350918210e-50  4.8198481696576569e-05  4.6672255979096714e-05  4.9234687534414468e-05  4.2569830934012595e-05  2.8557305249603603e-05  1.5140232557913659e-05  7.1907995971571559e-06  3.1023062792498268e-06  1.2684555657776466e-06  4.8450632002466182e-07  1.7075487633520148e-07  5.5008790998323486e-08  1.6075142299461116e-08  4.2282906875262900e-09  9.9146675667591922e-10  2.0440593984098544e-10  3.6226612653336751e-11  5.2833217243950272e-12  5.6733526214355864e-13  2.5300782012599195e-14  -6.0578221846553190e-15  -1.8565496201708277e-15  -2.6185118764238918e-16  -1.1916542502255265e-17  4.1847407369665359e-18  1.3369379071662367e-18  2.1567686380729735e-19  1.7517848656465727e-20  -1.4174450055020621e-21  -8.2478212411626836e-22  -1.6883571712368895e-22  -2.0126011482241833e-23  -4.7189256321578052e-25  4.2852612537671590e-25  1.1923167098457997e-25  1.7791846132637240e-26  1.1402737896001030e-27  -1.9848151737973416e-28  -7.8015223965826903e-29  -1.3626153877070917e-29  -1.3121488597881697e-30  9.9006680894883486e-33  3.0129209762849439e-32  6.3353006748797658e-33  7.9735871614662630e-34  6.4132345010108470e-35  2.6068579173742868e-36  -8.2263151035067609e-39  1.0482831058704446e-38  4.5643354750490679e-39  5.6998884299941071e-40  2.0908901315970972e-41  -2.2260464521866340e-42  -1.4001459943777412e-43  3.3489832097179704e-44  3.7120829811112236e-45  -3.7619495548815527e-46  -1.0137418996544038e-46  -5.2592555283091424e-48  5.9727853361317767e-49  1.8262688396461785e-49  3.3762105877924043e-05  3.3593902219539850e-05  3.3087891977357695e-05  2.8295925726993243e-05  1.9520111043739070e-05  1.0990139126683713e-05  5.4370916064114982e-06  2.4298325404872505e-06  1.0036105980697664e-06  3.8251848634004294e-07  1.3366991976382295e-07  4.2498440385042327e-08  1.2190151281971774e-08  3.1232940085625211e-09  7.0509999255204826e-10  1.3730916716406981e-10  2.2175706884406138e-11  2.7055319750953645e-12  1.6821850330437925e-13  -2.2344007354594467e-14  -9.0516572619854175e-15  -1.4660143897786359e-15  -8.9475364065206617e-17  2.0929828785351133e-17  7.7758995242498937e-18  1.3289399452951153e-18  1.0867058837481786e-19  -1.0880649859542580e-20  -5.9209223729816050e-21  -1.2100580528501743e-21  -1.4239402828929111e-22  -2.2341673811984910e-24  3.4265446901262052e-24  9.2046150991597638e-25  1.3216919420265251e-25  6.6265712878990653e-27  -2.0899696375664889e-27  -6.8534569341865576e-28  -1.0439916478370780e-28  -5.6307990214071229e-30  1.5311143553054710e-30  5.0537092637553572e-31  7.6570259424407143e-32  4.8900555421919944e-33  -6.9004440925391248e-34  -2.5392653106221339e-34  -3.9231167545309975e-35  -3.2932028145590063e-36  -2.9952538058457204e-40  4.5782213248226111e-38  7.5586375880822361e-39  6.7294550571505814e-40  2.5297510249945544e-41  -2.3837248238174058e-42  -5.5037102807345134e-43  -5.9782247166409950e-44  -3.9752744768028932e-45  -2.9788741755483510e-48  3.9985731179542853e-47  4.9067082264825285e-48  3.1011490899968169e-49  2.8816019241166969e-05  2.9617218908636235e-05  2.7449676608508307e-05  2.3209787774501950e-05  1.6227398840039272e-05  9.3770973470061259e-06  4.7094417845761621e-06  2.1233440181352511e-06  8.7524792322863472e-07  3.3021229934936278e-07  1.1341425893549859e-07  3.5159003572301571e-08  9.7276895187434062e-09  2.3647635380374657e-09  4.9264741295284918e-10  8.3824662921652927e-11  1.0267488747276878e-11  4.1809429816718985e-13  -1.9343189870528730e-13  -6.4097678731859546e-14  -1.0853806503469062e-14  -8.5116515078954363e-16  1.0856122169750562e-16  5.2133647140571551e-17  9.7140308865550129e-18  8.7249362865434885e-19  -7.0374667413947939e-20  -4.4183024471289324e-20  -9.3316667785528927e-21  -1.1189555371060414e-21  -1.7315083040858024e-23  2.8082959573315076e-23  7.7248476011756108e-24  1.1572844608713236e-24  6.8672487769517547e-26  -1.6317151701722644e-26  -5.9914457256279387e-27  -9.8125942769767675e-28  -6.2013999776227318e-29  1.3605835795783857e-29  4.9924938125319923e-30  7.8516731779877289e-31  4.4339200562136231e-32  -1.0865108824340773e-32  -3.6147322581454834e-33  -5.4398203462066290e-34  -3.6463480163385605e-35  3.7673957981806067e-36  1.4910133592499008e-36  2.3164310681173952e-37  2.0986147710987007e-38  6.5421352747850847e-40  -1.3003498651169606e-40  -2.6043665494401028e-41  -2.5389393805072412e-42  -1.2733403719749099e-43  4.5159836182828734e-45  1.8147210581359404e-45  2.1066227916001340e-46  1.0147542467309053e-47  -1.3529732468001311e-48  </DataArray> 
</PointData> 
</Piece>
</UnstructuredGrid>
</VTKFile>