<?xml version="1.0"?>
<VTKFile type="UnstructuredGrid"  version="0.1"  >
<UnstructuredGrid>
<Piece  NumberOfPoints="670" NumberOfCells="1192">
<Points>
<DataArray  type="Float64"  NumberOfComponents="3"  format="ascii">0 0 0  0.04 -1.31357e-10 0  0.0400579 0.0400582 0  0 0.04 0  0.08 -2.62713e-10 0  0.080123 0.0401093 0  0.12 -3.9407e-10 0  0.120183 0.040127 0  0.16 -5.25427e-10 0  0.160176 0.0400597 0  0.2 -6.56784e-10 0  0.199997 0.0399142 0  0.24 -7.8814e-10 0  0.239816 0.0400642 0  0.28 -9.19497e-10 0  0.279804 0.0401377 0  0.32 -1.05085e-09 0  0.319855 0.0401297 0  0.36 -1.18221e-09 0  0.359906 0.0400945 0  0.4 -1.31357e-09 0  0.399941 0.0400609 0  0.44 -1.44492e-09 0  0.439962 0.0400367 0  0.48 -1.57628e-09 0  0.479975 0.0400214 0  0.52 -1.70764e-09 0  0.519983 0.0400122 0  0.5600000000000001 -1.83899e-09 0  0.559987 0.0400069 0  0.6 -1.97035e-09 0  0.59999 0.040004 0  0.64 -2.10171e-09 0  0.639993 0.0400023 0  0.68 -2.23306e-09 0  0.679994 0.0400013 0  0.72 -2.36442e-09 0  0.7199950000000001 0.0400008 0  0.76 -2.49578e-09 0  0.759996 0.0400005 0  0.8 -2.62713e-09 0  0.799997 0.0400002 0  0.84 -2.75849e-09 0  0.839997 0.0400001 0  0.88 -2.88985e-09 0  0.8799979999999999 0.04 0  0.92 -3.0212e-09 0  0.919999 0.0399999 0  0.96 -3.15256e-09 0  0.959999 0.0399998 0  1 -3.28392e-09 0  1 0.0399998 0  1.04 -3.41527e-09 0  1.04 0.0399998 0  1.08 -3.54663e-09 0  1.08 0.0399998 0  1.12 -3.67799e-09 0  1.12 0.0399998 0  1.16 -3.80934e-09 0  1.16 0.0399999 0  1.2 -3.9407e-09 0  1.2 0.04 0  1.24 -4.07206e-09 0  1.24 0.04 0  1.28 -4.20341e-09 0  1.28 0.0400001 0  1.32 -4.33477e-09 0  1.32 0.0400001 0  1.36 -4.46613e-09 0  1.36 0.04 0  1.4 -4.59748e-09 0  1.4 0.04 0  1.44 -4.72884e-09 0  1.44 0.04 0  1.48 -4.8602e-09 0  1.48 0.04 0  1.52 -4.99156e-09 0  1.52 0.04 0  1.56 -5.12291e-09 0  1.56 0.04 0  1.6 -5.25427e-09 0  1.6 0.0400001 0  1.64 -5.38563e-09 0  1.64 0.0400001 0  1.68 -5.51698e-09 0  1.68 0.04 0  1.72 -5.64834e-09 0  1.72 0.04 0  1.76 -5.7797e-09 0  1.76 0.04 0  1.8 -5.91105e-09 0  1.8 0.04 0  1.84 -6.04241e-09 0  1.84 0.04 0  1.88 -6.17377e-09 0  1.88 0.0400001 0  1.92 -6.30512e-09 0  1.92 0.0400001 0  1.96 -6.43648e-09 0  1.96 0.0400001 0  2 -6.56784e-09 0  2 0.0400001 0  2.04 -6.69919e-09 0  2.04 0.0400001 0  2.08 -6.83055e-09 0  2.08 0.04 0  2.12 -6.96191e-09 0  2.12 0.04 0  2.16 -7.09326e-09 0  2.16 0.0400001 0  2.2 -7.22462e-09 0  2.2 0.04 0  2.24 -7.35598e-09 0  2.24 0.04 0  2.28 -7.48733e-09 0  2.28 0.0399999 0  2.32 -7.618690000000001e-09 0  2.32 0.04 0  2.36 -7.750049999999999e-09 0  2.36 0.04 0  2.4 -7.8814e-09 0  2.4 0.04 0  0.0401088 0.0801235 0  0 0.08 0  0.0802509 0.0802518 0  0.120434 0.0803392 0  0.160522 0.0801977 0  0.199995 0.0795328 0  0.239464 0.0802049 0  0.279544 0.08035689999999999 0  0.319711 0.0802867 0  0.359828 0.08018740000000001 0  0.399896 0.0801123 0  0.439933 0.0800646 0  0.479955 0.0800365 0  0.519968 0.08002049999999999 0  0.559976 0.0800116 0  0.599982 0.0800066 0  0.6399860000000001 0.0800039 0  0.679989 0.0800023 0  0.719991 0.0800014 0  0.759992 0.0800008 0  0.799994 0.0800004 0  0.839995 0.08000019999999999 0  0.879996 0.0799999 0  0.919997 0.07999970000000001 0  0.959999 0.0799996 0  1 0.0799995 0  1.04 0.0799995 0  1.08 0.0799996 0  1.12 0.07999970000000001 0  1.16 0.0799998 0  1.2 0.08 0  1.24 0.0800001 0  1.28 0.0800001 0  1.32 0.0800001 0  1.36 0.08 0  1.4 0.0799999 0  1.44 0.0799999 0  1.48 0.0799999 0  1.52 0.0799999 0  1.56 0.08 0  1.6 0.0800001 0  1.64 0.0800001 0  1.68 0.08 0  1.72 0.0799999 0  1.76 0.0799999 0  1.8 0.0799999 0  1.84 0.0799999 0  1.88 0.08 0  1.92 0.0800001 0  1.96 0.0800001 0  2 0.0800001 0  2.04 0.08 0  2.08 0.0799999 0  2.12 0.0799999 0  2.16 0.08 0  2.2 0.08 0  2.24 0.0799999 0  2.28 0.0799998 0  2.32 0.0799999 0  2.36 0.0799999 0  2.4 0.08 0  0.0401262 0.120184 0  0 0.12 0  0.0803378 0.120435 0  0.120779 0.12078 0  0.161485 0.120859 0  0.199996 0.117814 0  0.238503 0.120866 0  0.279195 0.120798 0  0.319616 0.120473 0  0.359799 0.120256 0  0.39988 0.120136 0  0.439921 0.120073 0  0.479944 0.120039 0  0.519958 0.120022 0  0.5599690000000001 0.120012 0  0.599976 0.120007 0  0.639981 0.120004 0  0.679985 0.120002 0  0.719987 0.120002 0  0.7599900000000001 0.120001 0  0.799991 0.12 0  0.839993 0.12 0  0.879995 0.12 0  0.919996 0.12 0  0.959998 0.119999 0  1 0.119999 0  1.04 0.119999 0  1.08 0.119999 0  1.12 0.12 0  1.16 0.12 0  1.2 0.12 0  1.24 0.12 0  1.28 0.12 0  1.32 0.12 0  1.36 0.12 0  1.4 0.12 0  1.44 0.12 0  1.48 0.12 0  1.52 0.12 0  1.56 0.12 0  1.6 0.12 0  1.64 0.12 0  1.68 0.12 0  1.72 0.12 0  1.76 0.12 0  1.8 0.12 0  1.84 0.12 0  1.88 0.12 0  1.92 0.12 0  1.96 0.12 0  2 0.12 0  2.04 0.12 0  2.08 0.12 0  2.12 0.12 0  2.16 0.12 0  2.2 0.12 0  2.24 0.12 0  2.28 0.12 0  2.32 0.12 0  2.36 0.12 0  2.4 0.12 0  0.0400582 0.160177 0  0 0.16 0  0.0801954 0.160525 0  0.120857 0.161488 0  0.164645 0.164645 0  0.2 0.15 0  0.235355 0.164645 0  0.279119 0.161498 0  0.319759 0.16055 0  0.359874 0.160228 0  0.399906 0.160104 0  0.439925 0.160051 0  0.479941 0.160027 0  0.519954 0.160014 0  0.559964 0.160008 0  0.5999719999999999 0.160005 0  0.639978 0.160003 0  0.679982 0.160002 0  0.719985 0.160001 0  0.759988 0.160001 0  0.79999 0.16 0  0.839992 0.16 0  0.8799940000000001 0.16 0  0.919996 0.159999 0  0.959998 0.159999 0  1 0.159999 0  1.04 0.159999 0  1.08 0.159999 0  1.12 0.16 0  1.16 0.16 0  1.2 0.16 0  1.24 0.16 0  1.28 0.16 0  1.32 0.16 0  1.36 0.16 0  1.4 0.16 0  1.44 0.16 0  1.48 0.16 0  1.52 0.16 0  1.56 0.16 0  1.6 0.16 0  1.64 0.16 0  1.68 0.16 0  1.72 0.16 0  1.76 0.16 0  1.8 0.16 0  1.84 0.16 0  1.88 0.16 0  1.92 0.16 0  1.96 0.16 0  2 0.16 0  2.04 0.16 0  2.08 0.16 0  2.12 0.16 0  2.16 0.16 0  2.2 0.16 0  2.24 0.16 0  2.28 0.16 0  2.32 0.16 0  2.36 0.16 0  2.4 0.16 0  0.0399111 0.2 0  0 0.2 0  0.0795281 0.2 0  0.117811 0.2 0  0.15 0.2 0  0.282167 0.2 0  0.25 0.2 0  0.320429 0.2 0  0.36003 0.200001 0  0.399944 0.200001 0  0.439934 0.200001 0  0.479942 0.200001 0  0.519953 0.200001 0  0.559963 0.200001 0  0.59997 0.200001 0  0.639976 0.200001 0  0.6799809999999999 0.200001 0  0.719984 0.200001 0  0.759987 0.200001 0  0.799989 0.2 0  0.839991 0.2 0  0.879993 0.2 0  0.919996 0.199999 0  0.959998 0.199999 0  1 0.199999 0  1.04 0.199999 0  1.08 0.199999 0  1.12 0.2 0  1.16 0.2 0  1.2 0.2 0  1.24 0.2 0  1.28 0.2 0  1.32 0.2 0  1.36 0.2 0  1.4 0.2 0  1.44 0.2 0  1.48 0.2 0  1.52 0.2 0  1.56 0.2 0  1.6 0.2 0  1.64 0.2 0  1.68 0.2 0  1.72 0.2 0  1.76 0.2 0  1.8 0.2 0  1.84 0.2 0  1.88 0.2 0  1.92 0.2 0  1.96 0.2 0  2 0.2 0  2.04 0.2 0  2.08 0.2 0  2.12 0.2 0  2.16 0.2 0  2.2 0.2 0  2.24 0.2 0  2.28 0.2 0  2.32 0.2 0  2.36 0.2 0  2.4 0.2 0  0.0400582 0.239823 0  0 0.24 0  0.0801953 0.239475 0  0.120857 0.238513 0  0.164645 0.235355 0  0.279119 0.238502 0  0.235355 0.235355 0  0.319759 0.239451 0  0.359873 0.239774 0  0.399905 0.239898 0  0.439925 0.239951 0  0.479941 0.239976 0  0.519954 0.239988 0  0.559964 0.239994 0  0.5999719999999999 0.239997 0  0.639977 0.239999 0  0.679982 0.24 0  0.719985 0.24 0  0.759987 0.24 0  0.79999 0.24 0  0.839992 0.24 0  0.8799940000000001 0.24 0  0.919996 0.239999 0  0.959998 0.239999 0  1 0.239999 0  1.04 0.239999 0  1.08 0.239999 0  1.12 0.24 0  1.16 0.24 0  1.2 0.24 0  1.24 0.24 0  1.28 0.24 0  1.32 0.24 0  1.36 0.24 0  1.4 0.24 0  1.44 0.24 0  1.48 0.24 0  1.52 0.24 0  1.56 0.24 0  1.6 0.24 0  1.64 0.24 0  1.68 0.24 0  1.72 0.24 0  1.76 0.24 0  1.8 0.24 0  1.84 0.24 0  1.88 0.24 0  1.92 0.24 0  1.96 0.24 0  2 0.24 0  2.04 0.24 0  2.08 0.24 0  2.12 0.24 0  2.16 0.24 0  2.2 0.24 0  2.24 0.24 0  2.28 0.24 0  2.32 0.24 0  2.36 0.24 0  2.4 0.24 0  0.0401261 0.279816 0  0 0.28 0  0.0803376 0.279565 0  0.120778 0.27922 0  0.161485 0.279141 0  0.2 0.25 0  0.199996 0.282186 0  0.238503 0.279135 0  0.279195 0.279202 0  0.319616 0.279528 0  0.359799 0.279745 0  0.39988 0.279865 0  0.43992 0.279929 0  0.479944 0.279962 0  0.519958 0.27998 0  0.559968 0.27999 0  0.599976 0.279995 0  0.639981 0.279998 0  0.679984 0.279999 0  0.719987 0.28 0  0.759989 0.28 0  0.799991 0.28 0  0.839993 0.28 0  0.879995 0.28 0  0.919997 0.279999 0  0.959998 0.279999 0  1 0.279999 0  1.04 0.279999 0  1.08 0.28 0  1.12 0.28 0  1.16 0.28 0  1.2 0.28 0  1.24 0.28 0  1.28 0.28 0  1.32 0.28 0  1.36 0.28 0  1.4 0.28 0  1.44 0.28 0  1.48 0.28 0  1.52 0.28 0  1.56 0.28 0  1.6 0.28 0  1.64 0.28 0  1.68 0.28 0  1.72 0.28 0  1.76 0.28 0  1.8 0.28 0  1.84 0.28 0  1.88 0.28 0  1.92 0.28 0  1.96 0.28 0  2 0.28 0  2.04 0.28 0  2.08 0.28 0  2.12 0.28 0  2.16 0.28 0  2.2 0.28 0  2.24 0.28 0  2.28 0.28 0  2.32 0.28 0  2.36 0.28 0  2.4 0.28 0  0.0401086 0.319877 0  0 0.32 0  0.08025060000000001 0.319748 0  0.120433 0.319661 0  0.160522 0.319802 0  0.199995 0.320467 0  0.239464 0.319795 0  0.279543 0.319643 0  0.31971 0.319714 0  0.359828 0.319813 0  0.399895 0.319889 0  0.439933 0.319937 0  0.479955 0.319965 0  0.519968 0.319981 0  0.559976 0.31999 0  0.599982 0.319995 0  0.6399860000000001 0.319998 0  0.679989 0.319999 0  0.719991 0.32 0  0.759992 0.32 0  0.799994 0.32 0  0.839995 0.32 0  0.879996 0.32 0  0.919998 0.32 0  0.959999 0.32 0  1 0.32 0  1.04 0.32 0  1.08 0.32 0  1.12 0.32 0  1.16 0.32 0  1.2 0.32 0  1.24 0.32 0  1.28 0.32 0  1.32 0.32 0  1.36 0.32 0  1.4 0.32 0  1.44 0.32 0  1.48 0.32 0  1.52 0.32 0  1.56 0.32 0  1.6 0.32 0  1.64 0.32 0  1.68 0.32 0  1.72 0.32 0  1.76 0.32 0  1.8 0.32 0  1.84 0.32 0  1.88 0.32 0  1.92 0.32 0  1.96 0.32 0  2 0.32 0  2.04 0.32 0  2.08 0.32 0  2.12 0.32 0  2.16 0.32 0  2.2 0.32 0  2.24 0.32 0  2.28 0.32 0  2.32 0.32 0  2.36 0.32 0  2.4 0.32 0  0.0400579 0.359942 0  0 0.36 0  0.0801229 0.359891 0  0.120183 0.359873 0  0.160175 0.35994 0  0.199997 0.360086 0  0.239816 0.359936 0  0.279804 0.359862 0  0.319855 0.359871 0  0.359906 0.359906 0  0.399941 0.35994 0  0.439962 0.359964 0  0.479975 0.359979 0  0.5199820000000001 0.359989 0  0.559987 0.359994 0  0.59999 0.359997 0  0.639993 0.359998 0  0.679994 0.359999 0  0.7199950000000001 0.36 0  0.759996 0.36 0  0.799997 0.36 0  0.839997 0.36 0  0.8799979999999999 0.36 0  0
[...]
<PointData  Scalars="f_10391-2"> 
<DataArray  type="Float64"  Name="f_10391-2"  format="ascii">1.6323473482155978e-04  1.6300171669355164e-04  1.7585081453951124e-04  1.7637498009625080e-04  1.5379120632525429e-04  1.6765772143791292e-04  1.3110844531348179e-04  1.4307192493925915e-04  9.9655781364892487e-05  1.0728989481808711e-04  6.8829282367295874e-05  7.2781998641503591e-05  4.4204118931628156e-05  4.5968818404943964e-05  2.6958120715129761e-05  2.7690572076049832e-05  1.5783265954878632e-05  1.6084037745020929e-05  8.9027281740011675e-06  9.0253110964567069e-06  4.8381789463729556e-06  4.8850078599747999e-06  2.5304184308100126e-06  2.5451145760911788e-06  1.2721267287211491e-06  1.2742339677513149e-06  6.1413425426429761e-07  6.1230522306096143e-07  2.8448463625969210e-07  2.8215993760820435e-07  1.2637523308921199e-07  1.2460211351858121e-07  5.3810229508855659e-08  5.2699420828270819e-08  2.1952351309672995e-08  2.1336851873897391e-08  8.5770638488757169e-09  8.2651994567690586e-09  3.2082398925461358e-09  3.0615155853972813e-09  1.1483974007501840e-09  1.0837445722487591e-09  3.9321685601634437e-10  3.6640528848849466e-10  1.2873629689582277e-10  1.1822625399165422e-10  4.0281010094681811e-11  3.6379641904008082e-11  1.2039742137022933e-11  1.0666850371046736e-11  3.4358378040850100e-12  2.9770698000071440e-12  9.3562489564489509e-13  7.9003787024974683e-13  2.4297614452577024e-13  1.9907385160034122e-13  6.0135246216076418e-14  4.7552880831993455e-14  1.4173332518139370e-14  1.0746039687548228e-14  3.1784498577756602e-15  2.2913213039148541e-15  6.7750445997529588e-16  4.5936553947662227e-16  1.3709415842653643e-16  8.6162152845576369e-17  2.6293780106196494e-17  1.5009593404278616e-17  4.7701393528906189e-18  2.3999836793530568e-18  8.1634603482986529e-19  3.4495764494254936e-19  1.3129576254230325e-19  4.2673137147635932e-20  1.9738293704958858e-20  4.0253125874645991e-21  2.7510189108624782e-21  1.3235515034574684e-22  3.5079365369064173e-22  -5.7432846042027670e-23  3.9971390959228668e-23  -1.9119060200686497e-23  3.8750804641348645e-24  -3.9727552469901515e-24  2.7846628073912172e-25  -6.5798204543264206e-25  5.2808172579247100e-27  -9.0930095805946836e-26  -2.6789520460917730e-27  -1.0282303063699391e-26  -5.9393231277417189e-28  -8.4218630599988977e-28  -7.5406303591279677e-29  -1.7877841415699661e-29  -5.1751553827183067e-30  1.0315931841378344e-29  3.2565437357181242e-31  2.6081975104144976e-30  1.8155393552085568e-31  3.9731528057895616e-31  3.6277230806036703e-32  4.1006063705299372e-32  4.9105990538299373e-33  1.6990362748048451e-33  4.2948943544991840e-34  -4.2399665807854182e-34  2.5213828701850844e-36  -1.3492430960946723e-34  -8.0662022841525793e-36  -2.3452957881032506e-35  -1.9563593970332618e-36  -2.8347332479728051e-36  -2.9915753794152101e-37  -1.9741411301441310e-37  -3.1135618060304749e-38  1.0593153854333287e-38  -1.3199348727216275e-39  6.4899935049373853e-39  3.1454605084606145e-40  1.3330117419773171e-39  2.1914459656139502e-40  3.6082636522276419e-40  2.0736983967875326e-04  2.0586673331718480e-04  2.0315437499797360e-04  1.7543279895816042e-04  1.2868591927658817e-04  8.3673889158316972e-05  5.0639948207249224e-05  2.9673545907870275e-05  1.7008354189746682e-05  9.4860974332448832e-06  5.1158639941337127e-06  2.6569814098033683e-06  1.3257892321258280e-06  6.3477431717723122e-07  2.9138351276630233e-07  1.2815461810475668e-07  5.3976295219075428e-08  2.1759070077958278e-08  8.3909810054671355e-09  3.0936821436069724e-09  1.0897770364277045e-09  3.6655300864358252e-10  1.1763857939585797e-10  3.5994720276140748e-11  1.0491056388829704e-11  2.9101368327058903e-12  7.6749773242067636e-13  1.9221793809783334e-13  4.5656494314172632e-14  1.0269839843643468e-14  2.1839978912086682e-15  4.3827284517759798e-16  8.2816652516405355e-17  1.4702082487164304e-17  2.4466236420799830e-18  3.8109786548982285e-19  5.5610559004468001e-20  7.6544064247145012e-21  1.0140049828463187e-21  1.3494302122597496e-22  1.9202973426737203e-23  3.0477079166791449e-24  5.2700792519002891e-25  9.2844917082186561e-26  1.5682089302664711e-26  2.4393333162692775e-27  3.3862328725129074e-28  4.0185813665103862e-29  3.6765956971292555e-30  1.5335074566749562e-31  -3.0713260204461943e-32  -1.0022731905888827e-32  -1.7634309241693392e-33  -2.1993053229556174e-34  -1.7053230324133045e-35  3.7250129389975814e-37  4.3564745725215760e-37  9.6580103628243911e-38  1.4185063896253928e-38  1.4252333313434482e-39  9.5233001204733701e-41  2.4112865012266630e-04  2.3838292281977284e-04  2.4045277400697507e-04  2.1297692802046275e-04  1.5697412371365639e-04  9.6789404176481466e-05  5.4969913138528809e-05  3.1336535625797689e-05  1.7903764588855649e-05  1.0003434156831794e-05  5.3986739610215955e-06  2.8005422577730294e-06  1.3939399443552786e-06  6.6523518308572168e-07  3.0424528392514556e-07  1.3330323126972989e-07  5.5927670143183902e-08  2.2457628354303557e-08  8.6263898857379893e-09  3.1676083716508196e-09  1.1112814955764860e-09  3.7219609502255173e-10  1.1892006412063393e-10  3.6218849626676775e-11  1.0505114988403708e-11  2.8990200134981529e-12  7.6042371580187077e-13  1.8935559220914659e-13  4.4704563831511232e-14  9.9915281850594521e-15  2.1105054123858141e-15  4.2050085856337397e-16  7.8845782635230539e-17  1.3875229192913207e-17  2.2841624042506175e-18  3.5033062772556859e-19  4.9799920195405722e-20  6.5136050528223828e-21  7.7467113472704899e-22  8.1723580891611089e-23  7.1079289957837656e-24  3.4547107216072618e-25  -5.0629439319258370e-26  -2.3486514329020113e-26  -6.2017274275340031e-27  -1.3832209768312241e-27  -2.7742429635206674e-28  -5.0526576698387800e-29  -8.3137041952303331e-30  -1.2180981021336886e-30  -1.5407741159928578e-31  -1.5555852032083647e-32  -9.0870086302482703e-34  7.6681640391173720e-35  3.6242629318723383e-35  7.2462133431971294e-36  1.0251135692379494e-36  1.0100408683375479e-37  3.4835782655629741e-39  -1.2599026198129837e-39  -7.3533219561062543e-40  2.6420224788551409e-04  2.6192566714862544e-04  2.6358684082217231e-04  2.4181866453374724e-04  1.9249032489358639e-04  1.0349087818079504e-04  5.0559728550498530e-05  3.0394435942590512e-05  1.8084773493114436e-05  1.0310578148246050e-05  5.6082499270654361e-06  2.9141278717380971e-06  1.4486917816095259e-06  6.8961376474136769e-07  3.1443345346865033e-07  1.3731002246351472e-07  5.7410821110645693e-08  2.2972517434195979e-08  8.7921711265702591e-09  3.2164249910935795e-09  1.1239617958723740e-09  3.7488090096739132e-10  1.1924696521832344e-10  3.6143775647380097e-11  1.0428875885826698e-11  2.8615900665356819e-12  7.4589452297914955e-13  1.8444157662329212e-13  4.3203636535567567e-14  9.5705284261302823e-15  2.0010342059496297e-15  3.9396361791936968e-16  7.2825891376069357e-17  1.2593576809949336e-17  2.0273807615298098e-18  3.0178380917715027e-19  4.1114984005819658e-20  5.0404564147892016e-21  5.3803824545272808e-22  4.6089243969644306e-23  2.2399974652397299e-24  -1.9850173027694584e-25  -7.8558333228197941e-26  -1.4270483780088119e-26  -1.8168662495354211e-27  -1.1894496993706876e-28  2.2196819640491360e-29  1.2042601989913471e-29  3.4780917065961574e-30  8.0241455594349020e-31  1.6000399944493732e-31  2.8192512442243139e-32  4.3885851122880497e-33  5.9170497967108869e-34  6.5154386046220824e-35  4.7304008954457081e-36  -1.2048612548818871e-37  -1.2565463267184422e-37  -2.8651799373826019e-38  -4.5478920446284444e-39  -1.0171553173435892e-39  2.7357086092509185e-04  2.7138000816692872e-04  2.7220788877079259e-04  2.5538698109924370e-04  2.3283462847727428e-04  2.7549933136344111e-05  3.6677816296505909e-05  1.7748886865500234e-05  1.0374052379829562e-05  5.6825478392608377e-06  2.9557881901022613e-06  1.4678255796004052e-06  6.9741186165691770e-07  3.1727899338383710e-07  1.3821990945156339e-07  5.7641610885401881e-08  2.3000267519942301e-08  8.7763903177615503e-09  3.2001594570898362e-09  1.1142796049073992e-09  3.7018508389597389e-10  1.1723769925263915e-10  3.5360047663631259e-11  1.0146903248125068e-11  2.7670930409148740e-12  7.1625101135484920e-13  1.7571326890194280e-13  4.0787567457534868e-14  8.9413616647665882e-15  1.8468731468590014e-15  3.5843463122383106e-16  6.5130575287719283e-17  1.1029351772466610e-17  1.7296265305229453e-18  2.4888881713954916e-19  3.2395440948810525e-20  3.7202777476222865e-21  3.5820129337626297e-22  2.5090964336047419e-23  4.4061146439893644e-25  -2.1412695786840326e-25  -3.9318296029080833e-26  -2.6216938939979577e-27  5.1057419889672870e-28  2.3221906675429224e-28  5.5024463537350387e-29  9.9132621934229582e-30  1.3941807976311603e-30  1.2406169534842764e-31  -6.9937888401407647e-33  -6.8300227582133085e-33  -2.1082643780764723e-33  -4.8648428949945708e-34  -9.4249282407274563e-35  -1.5797173765179931e-35  -2.2818271192037633e-36  -2.7271025295094614e-37  -2.3265733673633627e-38  -2.5030869705185748e-40  8.3503362451226314e-40  2.6669318958451787e-04  2.6341444533592759e-04  2.6430411431888577e-04  2.3770535166958004e-04  1.8844181599117637e-04  3.0503536166742785e-05  5.1076210527072321e-05  1.8211426035351531e-05  1.0369106001338453e-05  5.6231422154007075e-06  2.9122549788574879e-06  1.4430387864883004e-06  6.8465297599368386e-07  3.1108693335774866e-07  1.3533751009852368e-07  5.6351982124056215e-08  2.2443256489811873e-08  8.5445789234051494e-09  3.1074134271704425e-09  1.0785628739972449e-09  3.5700676174266274e-10  1.1258390450111829e-10  3.3791085899262423e-11  9.6419488846441213e-12  2.6122967724636116e-12  6.7111655204963612e-13  1.6321655399930188e-13  3.7506548471632451e-14  8.1258936756909642e-15  1.6553470305644747e-15  3.1601261158898670e-16  5.6290800328645532e-17  9.3017244719775575e-18  1.4142296442755413e-18  1.9540970611083934e-19  2.4045408825430479e-20  2.5366419865154397e-21  2.0979648044987112e-22  9.5472304812129164e-24  -6.9998813035954558e-25  -2.1526590413229973e-25  -2.1401723317276031e-26  8.2745751153923228e-28  7.6185238757606908e-28  1.6978756714744550e-28  2.3302192544917149e-29  1.3733162735087981e-30  -3.4717882562268223e-31  -1.5537720313477241e-31  -3.8229059414019629e-32  -7.1629990218745247e-33  -1.0444673580128533e-33  -9.9000501354251696e-35  3.0785707555133046e-36  4.4186235768945191e-36  1.3659206584488170e-36  3.0586377800825635e-37  5.6472680376343516e-38  8.9860859887955643e-39  2.2876039872806629e-39  2.4139126161251917e-04  2.3738875526607383e-04  2.4025933384700990e-04  2.1112018907098844e-04  1.5598155943742016e-04  1.0548948650178114e-04  9.5439102693041671e-05  5.5541932144319566e-05  3.1655578864649724e-05  1.8071645761377142e-05  1.0064506239655622e-05  5.4067302820583739e-06  2.7901321283399311e-06  1.3809256237267579e-06  6.5503061799307368e-07  2.9760123728173783e-07  1.2943306073966260e-07  5.3858110949762109e-08  2.1427206797993604e-08  8.1444695890151035e-09  2.9553933469513554e-09  1.0229384750575773e-09  3.3741731240834542e-10  1.0595760970525770e-10  3.1642370153839352e-11  8.9754802584322947e-12  2.4147471000962295e-12  6.1528735914105903e-13  1.4820166172374453e-13  3.3671665309787495e-14  7.1977090487855054e-15  1.4429317112192218e-15  2.7017060262504698e-16  4.6990281393150058e-17  7.5348021714168631e-18  1.1015081464002398e-18  1.4421761482974989e-19  1.6377616399966298e-20  1.5041234190215682e-21  8.8819768263798904e-23  -1.9076452138900360e-24  -1.3782712286733274e-24  -1.9090293570727320e-25  -7.7967722469227827e-27  2.6848527801442974e-27  7.8548990687223908e-28  1.1649070689372993e-28  7.8234251827484712e-30  -1.2221592111059840e-30  -5.5416067221705449e-31  -1.1735851692674871e-31  -1.6433450641332983e-32  -1.0635639231367473e-33  2.3127756603632935e-34  1.1105361215905309e-34  2.7941367860774698e-35  5.2600721531665452e-36  7.5777429905842557e-37  6.8606170115972369e-38  -3.0510817172514977e-39  -3.3434255339713635e-39  -1.8849493711566050e-39  2.0347489173700106e-04  2.0146536242341621e-04  2.0081604492878615e-04  1.7611373979962224e-04  1.3049320301485810e-04  8.4141625549222115e-05  5.1109290544498774e-05  2.9879422102391454e-05  1.7098921803828477e-05  9.5039178786427180e-06  5.0993080763538121e-06  2.6313342950628440e-06  1.3031531120021833e-06  6.1861411803604407e-07  2.8122409926010584e-07  1.2233563450470960e-07  5.0888171229985715e-08  2.0226526819671474e-08  7.6759807872466758e-09  2.7790754560445140e-09  9.5897263207680896e-10  3.1509963515850854e-10  9.8479210711996399e-11  2.9238517106749853e-11  8.2359547594893447e-12  2.1975078917340972e-12  5.5442698640028061e-13  1.3198026475628089e-13  2.9567431342016056e-14  6.2141062123225913e-15  1.2202429873951006e-15  2.2268564538367943e-16  3.7488546712843647e-17  5.7589265206119729e-18  7.9343301898771985e-19  9.5056912979877467e-20  9.2620263741100235e-21  5.9228683935589933e-22  -9.6618069524392394e-24  -9.7404391119495448e-24  -1.5582633920318550e-24  -1.0989663767541345e-25  1.0852560899944621e-26  4.9237372349894830e-27  8.7379310156149918e-28  8.7312222468102974e-29  -3.0874541271697477e-31  -2.2074759963098816e-30  -5.2871693953270187e-31  -7.3316611825014006e-32  -4.0825163963943329e-33  1.0884314466316640e-33  4.3493611066701323e-34  9.1539810729874999e-35  1.2950932749330871e-35  8.5765204778785215e-37  -1.7965637234141205e-37  -8.7039066263216726e-38  -2.1681051290948033e-38  -4.0502652404774042e-39  -1.0819575129378855e-39  1.7133916323729752e-04  1.7227065093803985e-04  1.6490263420347218e-04  1.4416592364227443e-04  1.0967640925824348e-04  7.3976539093384257e-05  4.6480581547593890e-05  2.7845654426657032e-05  1.6097805960941851e-05  8.9828506370130134e-06  4.8280341304420107e-06  2.4939103118672522e-06  1.2359183041421859e-06  5.8687838298145547e-07  2.6674748809114214e-07  1.1595198884093761e-07  4.8163372801088218e-08  1.9102377178322884e-08  7.2277388127992102e-09  2.6065627376539528e-09  8.9505429593816719e-10  2.9233591434374840e-10  9.0698378175361684e-11  2.6693216147781703e-11  7.4402073822023940e-12  1.9604008348538190e-12  4.8718128822436393e-13  1.1387442465167591e-13  2.4949732021911683e-14  5.1014207463640902e-15  9.6766806611691005e-16  1.6886339773237966e-16  2.6768993752657827e-17  3.7751285335880950e-18  4.5510138404026488e-19  4.2544084755451303e-20  1.9990077230178564e-21  -2.6688489164134771e-22  -8.8039137080732560e-23  -1.3077259101671366e-23  -9.7032739130139239e-25  7.4255898708043022e-26  3.9524561916992379e-26  7.5539550938222455e-27  8.6671964580177194e-28  3.0226113382425475e-29  -1.2871461957971402e-29  -3.7377605582355939e-30  -5.8104154640272584e-31  -4.8203134049894275e-32  2.9231303867034482e-33  1.9989108139601301e-33  4.3172248052147607e-34  5.6325908352351348e-35  2.3189377832343738e-36  -1.1217529181506143e-36  -4.0170113783580223e-37  -8.2218709156918332e-38  -1.1317781565833740e-38  -6.3278826232591911e-40  3.6561935494451135e-40  1.5960514329786153e-04  1.6274368781937407e-04  1.5140794854145482e-04  1.3185025866819963e-04  1.0153944052434295e-04  6.9784037751452959e-05  4.4412064348584046e-05  2.6837890964045455e-05  1.5576712798111484e-05  8.7026338680123412e-06  4.6759976433084892e-06  2.4123195580221946e-06  1.1930618257336192e-06  5.6493897730766759e-07  2.5584787818851897e-07  1.1070928034488332e-07  4.5730363113927586e-08  1.8014877107475610e-08  6.7611352677886037e-09  2.4148331706620939e-09  8.1976028964412417e-10  2.6411872377304633e-10  8.0630563735326941e-11  2.3278020421420670e-11  6.3404789400752829e-12  1.6247185244532854e-12  3.9023754824416563e-13  8.7438958003645158e-14  1.8158268254522984e-14  3.4619886293761376e-15  5.9703271787700044e-16  9.0722184454402781e-17  1.1493070245767410e-17  1.0285584511431294e-18  6.5288344238576041e-21  -2.2629584534676777e-20  -6.0902239932988249e-21  -1.0415877001023529e-21  -1.2325718674477390e-22  -6.9498858510428345e-24  1.0686428118280925e-24  4.1050986220753013e-25  7.3459405879437600e-26  8.1138223161025270e-27  2.5021016687774044e-28  -1.2585544232149967e-28  -3.5465357872079589e-29  -5.4871026380425632e-30  -4.7519410151490039e-31  1.6628532671363566e-32  1.5539429212242943e-32  3.3868947748304182e-33  4.4280419616663098e-34  2.2088076708773695e-35  -6.5390069784704465e-36  -2.3813385733032595e-36  -4.5583600577124466e-37  -5.3945191939504395e-38  -8.1977202779534291e-40  1.6409161411200998e-39  9.3018274236365486e-40  </DataArray> 
</PointData> 
</Piece>
</UnstructuredGrid>
</VTKFile>