<?xml version="1.0"?>
<VTKFile type="UnstructuredGrid"  version="0.1"  >
<UnstructuredGrid>
<Piece  NumberOfPoints="670" NumberOfCells="1192">
<Points>
<DataArray  type="Float64"  NumberOfComponents="3"  format="ascii">0 0 0  0.04 -1.31357e-10 0  0.0400579 0.0400582 0  0 0.04 0  0.08 -2.62713e-10 0  0.080123 0.0401093 0  0.12 -3.9407e-10 0  0.120183 0.040127 0  0.16 -5.25427e-10 0  0.160176 0.0400597 0  0.2 -6.56784e-10 0  0.199997 0.0399142 0  0.24 -7.8814e-10 0  0.239816 0.0400642 0  0.28 -9.19497e-10 0  0.279804 0.0401377 0  0.32 -1.05085e-09 0  0.319855 0.0401297 0  0.36 -1.18221e-09 0  0.359906 0.0400945 0  0.4 -1.31357e-09 0  0.399941 0.0400609 0  0.44 -1.44492e-09 0  0.439962 0.0400367 0  0.48 -1.57628e-09 0  0.479975 0.0400214 0  0.52 -1.70764e-09 0  0.519983 0.0400122 0  0.5600000000000001 -1.83899e-09 0  0.559987 0.0400069 0  0.6 -1.97035e-09 0  0.59999 0.040004 0  0.64 -2.10171e-09 0  0.639993 0.0400023 0  0.68 -2.23306e-09 0  0.679994 0.0400013 0  0.72 -2.36442e-09 0  0.7199950000000001 0.0400008 0  0.76 -2.49578e-09 0  0.759996 0.0400005 0  0.8 -2.62713e-09 0  0.799997 0.0400002 0  0.84 -2.75849e-09 0  0.839997 0.0400001 0  0.88 -2.88985e-09 0  0.8799979999999999 0.04 0  0.92 -3.0212e-09 0  0.919999 0.0399999 0  0.96 -3.15256e-09 0  0.959999 0.0399998 0  1 -3.28392e-09 0  1 0.0399998 0  1.04 -3.41527e-09 0  1.04 0.0399998 0  1.08 -3.54663e-09 0  1.08 0.0399998 0  1.12 -3.67799e-09 0  1.12 0.0399998 0  1.16 -3.80934e-09 0  1.16 0.0399999 0  1.2 -3.9407e-09 0  1.2 0.04 0  1.24 -4.07206e-09 0  1.24 0.04 0  1.28 -4.20341e-09 0  1.28 0.0400001 0  1.32 -4.33477e-09 0  1.32 0.0400001 0  1.36 -4.46613e-09 0  1.36 0.04 0  1.4 -4.59748e-09 0  1.4 0.04 0  1.44 -4.72884e-09 0  1.44 0.04 0  1.48 -4.8602e-09 0  1.48 0.04 0  1.52 -4.99156e-09 0  1.52 0.04 0  1.56 -5.12291e-09 0  1.56 0.04 0  1.6 -5.25427e-09 0  1.6 0.0400001 0  1.64 -5.38563e-09 0  1.64 0.0400001 0  1.68 -5.51698e-09 0  1.68 0.04 0  1.72 -5.64834e-09 0  1.72 0.04 0  1.76 -5.7797e-09 0  1.76 0.04 0  1.8 -5.91105e-09 0  1.8 0.04 0  1.84 -6.04241e-09 0  1.84 0.04 0  1.88 -6.17377e-09 0  1.88 0.0400001 0  1.92 -6.30512e-09 0  1.92 0.0400001 0  1.96 -6.43648e-09 0  1.96 0.0400001 0  2 -6.56784e-09 0  2 0.0400001 0  2.04 -6.69919e-09 0  2.04 0.0400001 0  2.08 -6.83055e-09 0  2.08 0.04 0  2.12 -6.96191e-09 0  2.12 0.04 0  2.16 -7.09326e-09 0  2.16 0.0400001 0  2.2 -7.22462e-09 0  2.2 0.04 0  2.24 -7.35598e-09 0  2.24 0.04 0  2.28 -7.48733e-09 0  2.28 0.0399999 0  2.32 -7.618690000000001e-09 0  2.32 0.04 0  2.36 -7.750049999999999e-09 0  2.36 0.04 0  2.4 -7.8814e-09 0  2.4 0.04 0  0.0401088 0.0801235 0  0 0.08 0  0.0802509 0.0802518 0  0.120434 0.0803392 0  0.160522 0.0801977 0  0.199995 0.0795328 0  0.239464 0.0802049 0  0.279544 0.08035689999999999 0  0.319711 0.0802867 0  0.359828 0.08018740000000001 0  0.399896 0.0801123 0  0.439933 0.0800646 0  0.479955 0.0800365 0  0.519968 0.08002049999999999 0  0.559976 0.0800116 0  0.599982 0.0800066 0  0.6399860000000001 0.0800039 0  0.679989 0.0800023 0  0.719991 0.0800014 0  0.759992 0.0800008 0  0.799994 0.0800004 0  0.839995 0.08000019999999999 0  0.879996 0.0799999 0  0.919997 0.07999970000000001 0  0.959999 0.0799996 0  1 0.0799995 0  1.04 0.0799995 0  1.08 0.0799996 0  1.12 0.07999970000000001 0  1.16 0.0799998 0  1.2 0.08 0  1.24 0.0800001 0  1.28 0.0800001 0  1.32 0.0800001 0  1.36 0.08 0  1.4 0.0799999 0  1.44 0.0799999 0  1.48 0.0799999 0  1.52 0.0799999 0  1.56 0.08 0  1.6 0.0800001 0  1.64 0.0800001 0  1.68 0.08 0  1.72 0.0799999 0  1.76 0.0799999 0  1.8 0.0799999 0  1.84 0.0799999 0  1.88 0.08 0  1.92 0.0800001 0  1.96 0.0800001 0  2 0.0800001 0  2.04 0.08 0  2.08 0.0799999 0  2.12 0.0799999 0  2.16 0.08 0  2.2 0.08 0  2.24 0.0799999 0  2.28 0.0799998 0  2.32 0.0799999 0  2.36 0.0799999 0  2.4 0.08 0  0.0401262 0.120184 0  0 0.12 0  0.0803378 0.120435 0  0.120779 0.12078 0  0.161485 0.120859 0  0.199996 0.117814 0  0.238503 0.120866 0  0.279195 0.120798 0  0.319616 0.120473 0  0.359799 0.120256 0  0.39988 0.120136 0  0.439921 0.120073 0  0.479944 0.120039 0  0.519958 0.120022 0  0.5599690000000001 0.120012 0  0.599976 0.120007 0  0.639981 0.120004 0  0.679985 0.120002 0  0.719987 0.120002 0  0.7599900000000001 0.120001 0  0.799991 0.12 0  0.839993 0.12 0  0.879995 0.12 0  0.919996 0.12 0  0.959998 0.119999 0  1 0.119999 0  1.04 0.119999 0  1.08 0.119999 0  1.12 0.12 0  1.16 0.12 0  1.2 0.12 0  1.24 0.12 0  1.28 0.12 0  1.32 0.12 0  1.36 0.12 0  1.4 0.12 0  1.44 0.12 0  1.48 0.12 0  1.52 0.12 0  1.56 0.12 0  1.6 0.12 0  1.64 0.12 0  1.68 0.12 0  1.72 0.12 0  1.76 0.12 0  1.8 0.12 0  1.84 0.12 0  1.88 0.12 0  1.92 0.12 0  1.96 0.12 0  2 0.12 0  2.04 0.12 0  2.08 0.12 0  2.12 0.12 0  2.16 0.12 0  2.2 0.12 0  2.24 0.12 0  2.28 0.12 0  2.32 0.12 0  2.36 0.12 0  2.4 0.12 0  0.0400582 0.160177 0  0 0.16 0  0.0801954 0.160525 0  0.120857 0.161488 0  0.164645 0.164645 0  0.2 0.15 0  0.235355 0.164645 0  0.279119 0.161498 0  0.319759 0.16055 0  0.359874 0.160228 0  0.399906 0.160104 0  0.439925 0.160051 0  0.479941 0.160027 0  0.519954 0.160014 0  0.559964 0.160008 0  0.5999719999999999 0.160005 0  0.639978 0.160003 0  0.679982 0.160002 0  0.719985 0.160001 0  0.759988 0.160001 0  0.79999 0.16 0  0.839992 0.16 0  0.8799940000000001 0.16 0  0.919996 0.159999 0  0.959998 0.159999 0  1 0.159999 0  1.04 0.159999 0  1.08 0.159999 0  1.12 0.16 0  1.16 0.16 0  1.2 0.16 0  1.24 0.16 0  1.28 0.16 0  1.32 0.16 0  1.36 0.16 0  1.4 0.16 0  1.44 0.16 0  1.48 0.16 0  1.52 0.16 0  1.56 0.16 0  1.6 0.16 0  1.64 0.16 0  1.68 0.16 0  1.72 0.16 0  1.76 0.16 0  1.8 0.16 0  1.84 0.16 0  1.88 0.16 0  1.92 0.16 0  1.96 0.16 0  2 0.16 0  2.04 0.16 0  2.08 0.16 0  2.12 0.16 0  2.16 0.16 0  2.2 0.16 0  2.24 0.16 0  2.28 0.16 0  2.32 0.16 0  2.36 0.16 0  2.4 0.16 0  0.0399111 0.2 0  0 0.2 0  0.0795281 0.2 0  0.117811 0.2 0  0.15 0.2 0  0.282167 0.2 0  0.25 0.2 0  0.320429 0.2 0  0.36003 0.200001 0  0.399944 0.200001 0  0.439934 0.200001 0  0.479942 0.200001 0  0.519953 0.200001 0  0.559963 0.200001 0  0.59997 0.200001 0  0.639976 0.200001 0  0.6799809999999999 0.200001 0  0.719984 0.200001 0  0.759987 0.200001 0  0.799989 0.2 0  0.839991 0.2 0  0.879993 0.2 0  0.919996 0.199999 0  0.959998 0.199999 0  1 0.199999 0  1.04 0.199999 0  1.08 0.199999 0  1.12 0.2 0  1.16 0.2 0  1.2 0.2 0  1.24 0.2 0  1.28 0.2 0  1.32 0.2 0  1.36 0.2 0  1.4 0.2 0  1.44 0.2 0  1.48 0.2 0  1.52 0.2 0  1.56 0.2 0  1.6 0.2 0  1.64 0.2 0  1.68 0.2 0  1.72 0.2 0  1.76 0.2 0  1.8 0.2 0  1.84 0.2 0  1.88 0.2 0  1.92 0.2 0  1.96 0.2 0  2 0.2 0  2.04 0.2 0  2.08 0.2 0  2.12 0.2 0  2.16 0.2 0  2.2 0.2 0  2.24 0.2 0  2.28 0.2 0  2.32 0.2 0  2.36 0.2 0  2.4 0.2 0  0.0400582 0.239823 0  0 0.24 0  0.0801953 0.239475 0  0.120857 0.238513 0  0.164645 0.235355 0  0.279119 0.238502 0  0.235355 0.235355 0  0.319759 0.239451 0  0.359873 0.239774 0  0.399905 0.239898 0  0.439925 0.239951 0  0.479941 0.239976 0  0.519954 0.239988 0  0.559964 0.239994 0  0.5999719999999999 0.239997 0  0.639977 0.239999 0  0.679982 0.24 0  0.719985 0.24 0  0.759987 0.24 0  0.79999 0.24 0  0.839992 0.24 0  0.8799940000000001 0.24 0  0.919996 0.239999 0  0.959998 0.239999 0  1 0.239999 0  1.04 0.239999 0  1.08 0.239999 0  1.12 0.24 0  1.16 0.24 0  1.2 0.24 0  1.24 0.24 0  1.28 0.24 0  1.32 0.24 0  1.36 0.24 0  1.4 0.24 0  1.44 0.24 0  1.48 0.24 0  1.52 0.24 0  1.56 0.24 0  1.6 0.24 0  1.64 0.24 0  1.68 0.24 0  1.72 0.24 0  1.76 0.24 0  1.8 0.24 0  1.84 0.24 0  1.88 0.24 0  1.92 0.24 0  1.96 0.24 0  2 0.24 0  2.04 0.24 0  2.08 0.24 0  2.12 0.24 0  2.16 0.24 0  2.2 0.24 0  2.24 0.24 0  2.28 0.24 0  2.32 0.24 0  2.36 0.24 0  2.4 0.24 0  0.0401261 0.279816 0  0 0.28 0  0.0803376 0.279565 0  0.120778 0.27922 0  0.161485 0.279141 0  0.2 0.25 0  0.199996 0.282186 0  0.238503 0.279135 0  0.279195 0.279202 0  0.319616 0.279528 0  0.359799 0.279745 0  0.39988 0.279865 0  0.43992 0.279929 0  0.479944 0.279962 0  0.519958 0.27998 0  0.559968 0.27999 0  0.599976 0.279995 0  0.639981 0.279998 0  0.679984 0.279999 0  0.719987 0.28 0  0.759989 0.28 0  0.799991 0.28 0  0.839993 0.28 0  0.879995 0.28 0  0.919997 0.279999 0  0.959998 0.279999 0  1 0.279999 0  1.04 0.279999 0  1.08 0.28 0  1.12 0.28 0  1.16 0.28 0  1.2 0.28 0  1.24 0.28 0  1.28 0.28 0  1.32 0.28 0  1.36 0.28 0  1.4 0.28 0  1.44 0.28 0  1.48 0.28 0  1.52 0.28 0  1.56 0.28 0  1.6 0.28 0  1.64 0.28 0  1.68 0.28 0  1.72 0.28 0  1.76 0.28 0  1.8 0.28 0  1.84 0.28 0  1.88 0.28 0  1.92 0.28 0  1.96 0.28 0  2 0.28 0  2.04 0.28 0  2.08 0.28 0  2.12 0.28 0  2.16 0.28 0  2.2 0.28 0  2.24 0.28 0  2.28 0.28 0  2.32 0.28 0  2.36 0.28 0  2.4 0.28 0  0.0401086 0.319877 0  0 0.32 0  0.08025060000000001 0.319748 0  0.120433 0.319661 0  0.160522 0.319802 0  0.199995 0.320467 0  0.239464 0.319795 0  0.279543 0.319643 0  0.31971 0.319714 0  0.359828 0.319813 0  0.399895 0.319889 0  0.439933 0.319937 0  0.479955 0.319965 0  0.519968 0.319981 0  0.559976 0.31999 0  0.599982 0.319995 0  0.6399860000000001 0.319998 0  0.679989 0.319999 0  0.719991 0.32 0  0.759992 0.32 0  0.799994 0.32 0  0.839995 0.32 0  0.879996 0.32 0  0.919998 0.32 0  0.959999 0.32 0  1 0.32 0  1.04 0.32 0  1.08 0.32 0  1.12 0.32 0  1.16 0.32 0  1.2 0.32 0  1.24 0.32 0  1.28 0.32 0  1.32 0.32 0  1.36 0.32 0  1.4 0.32 0  1.44 0.32 0  1.48 0.32 0  1.52 0.32 0  1.56 0.32 0  1.6 0.32 0  1.64 0.32 0  1.68 0.32 0  1.72 0.32 0  1.76 0.32 0  1.8 0.32 0  1.84 0.32 0  1.88 0.32 0  1.92 0.32 0  1.96 0.32 0  2 0.32 0  2.04 0.32 0  2.08 0.32 0  2.12 0.32 0  2.16 0.32 0  2.2 0.32 0  2.24 0.32 0  2.28 0.32 0  2.32 0.32 0  2.36 0.32 0  2.4 0.32 0  0.0400579 0.359942 0  0 0.36 0  0.0801229 0.359891 0  0.120183 0.359873 0  0.160175 0.35994 0  0.199997 0.360086 0  0.239816 0.359936 0  0.279804 0.359862 0  0.319855 0.359871 0  0.359906 0.359906 0  0.399941 0.35994 0  0.439962 0.359964 0  0.479975 0.359979 0  0.5199820000000001 0.359989 0  0.559987 0.359994 0  0.59999 0.359997 0  0.639993 0.359998 0  0.679994 0.359999 0  0.7199950000000001 0.36 0  0.759996 0.36 0  0.799997 0.36 0  0.839997 0.36 0  0.8799979999999999 0.36 0  0
[...]
<PointData  Scalars="f_10391-2"> 
<DataArray  type="Float64"  Name="f_10391-2"  format="ascii">3.4556902388412352e-04  3.4471533706886907e-04  3.6231728358871828e-04  3.6327611885578453e-04  3.2939417262055061e-04  3.4896217890255485e-04  2.9127542598263336e-04  3.0851935186008419e-04  2.3665627114388227e-04  2.4781539277276399e-04  1.8010501308770590e-04  1.8598597532193072e-04  1.3111990340763005e-04  1.3380649710908628e-04  9.2864943329983691e-05  9.4023522508908134e-05  6.4478583629204754e-05  6.4990750715509179e-05  4.3971551677232627e-05  4.4208839611224520e-05  2.9436774435825937e-05  2.9546994705933800e-05  1.9323068752973283e-05  1.9369867913508857e-05  1.2423898172592634e-05  1.2438521241664289e-05  7.8172209126613040e-06  7.8166434099096516e-06  4.8101529217233762e-06  4.8036658878448255e-06  2.8929510550369985e-06  2.8851783919584377e-06  1.6998471896167427e-06  1.6928596219861237e-06  9.7546228878451431e-07  9.6999810585558357e-07  5.4653375271720812e-07  5.4259848244017253e-07  2.9889925724097316e-07  2.9623216524579098e-07  1.5953161309370575e-07  1.5781108704781769e-07  8.3082127253643381e-08  8.2020065290804119e-08  4.2212760867377929e-08  4.1580878181996769e-08  2.0921721633239364e-08  2.0558880160827754e-08  1.0113802726573722e-08  9.9125528253022279e-09  4.7681043880811292e-09  4.6598968163502764e-09  2.1919972377618507e-09  2.1356460890525290e-09  9.8253419396087596e-10  9.5406401268004098e-10  4.2935636350556209e-10  4.1539359674278599e-10  1.8289342578060443e-10  1.7624310904076435e-10  7.5933501115697598e-11  7.2856382825763406e-11  3.0723204394621297e-11  2.9339703769004925e-11  1.2112610323872927e-11  1.1508060199894765e-11  4.6524810167282009e-12  4.3957038231563652e-12  1.7407718505928431e-12  1.6347521876044604e-12  6.3436884708565186e-13  5.9181399380589221e-13  2.2511995775701678e-13  2.0851440163866118e-13  7.7783040783138426e-14  7.1483665180825062e-14  2.6162444274473841e-14  2.3839334894684904e-14  8.5647537738111853e-15  7.7319395367701574e-15  2.7284272862829546e-15  2.4382198397434128e-15  8.4563841017246606e-16  7.4734750465761796e-16  2.5494231975523311e-16  2.2258910789557168e-16  7.4746449714196143e-17  6.4397988498389117e-17  2.1307483385648294e-17  1.8091354586854625e-17  5.9042261105363920e-18  4.9332031921181219e-18  1.5899124820243925e-18  1.3051413071685056e-18  4.1595520147403943e-19  3.3484763463546791e-19  1.0569583759550977e-19  8.3265227789047011e-20  2.6077920107594772e-20  2.0055848161262034e-20  6.2451994887452523e-21  4.6760039446665373e-21  1.4511732536598786e-21  1.0544149510549932e-21  3.2705186153927105e-22  2.2973932273332318e-22  7.1457045671723060e-23  4.8311245400523969e-23  1.5128275236707454e-23  9.7914001259234765e-24  3.1017885663317030e-24  1.9093464091733325e-24  6.1558880604815367e-25  3.5752012185447193e-25  1.1826582220278295e-25  6.4191537022331852e-26  2.2099630579632066e-26  1.1124204543369921e-26  4.2408841178685111e-27  2.0194507398864450e-27  1.7002096502458431e-27  7.5714941367019430e-28  4.0389504925648662e-04  4.0168774051111881e-04  3.9710720677250689e-04  3.5352873131213019e-04  2.7814331100124490e-04  2.0162573899609105e-04  1.4042776043785406e-04  9.6798551560564776e-05  6.6330863588951472e-05  4.4946715475928076e-05  2.9972912233499592e-05  1.9613432851732606e-05  1.2573127096049808e-05  7.8879670412823253e-06  4.8396302504752580e-06  2.9022897272262313e-06  1.7004373700586679e-06  9.7298071993176026e-07  5.4354106920804111e-07  2.9636519196612702e-07  1.5767829150782260e-07  8.1844984765915326e-08  4.1438290212053358e-08  2.0461134875026754e-08  9.8514617687546718e-09  4.6245225373697776e-09  2.1162472682812407e-09  9.4390210997447104e-10  4.1028350172422876e-10  1.7376790345721477e-10  7.1699031506392654e-11  2.8816527201824763e-11  1.1279175839323525e-11  4.2987237625444879e-12  1.5949351803054978e-12  5.7596820512421334e-13  2.0240083588237549e-13  6.9196803836917389e-14  2.3009997390824357e-14  7.4403861268847513e-15  2.3388837039369799e-15  7.1455610148987685e-16  2.1210562838145174e-16  6.1153663918455353e-17  1.7120084890993938e-17  4.6521379562463561e-18  1.2266016990344092e-18  3.1368207053721401e-19  7.7773493009239017e-20  1.8686951619281175e-20  4.3491888537100384e-21  9.8000450817025819e-22  2.1368585314940564e-22  4.5063236071713521e-23  9.1863089808001929e-24  1.8093767047985254e-24  3.4426204843313749e-25  6.3340095425928100e-26  1.1369547253699670e-26  2.1389963961305218e-27  8.0826118031874129e-28  4.4531925278035601e-04  4.4161781513880156e-04  4.4344155143352784e-04  4.0182150981394520e-04  3.1607448788029780e-04  2.1946463221365146e-04  1.4549849946200898e-04  9.8480089105185326e-05  6.7357097327053778e-05  4.5681610859326676e-05  3.0464760023031619e-05  1.9916159294251289e-05  1.2747897052214276e-05  7.9838391852760428e-06  4.8898388270840050e-06  2.9275512562040574e-06  1.7125914273863445e-06  9.7852954184832885e-07  5.4591646623140056e-07  2.9727869756626006e-07  1.5797751467659104e-07  8.1903732318209907e-08  4.1419824694237587e-08  2.0428603253497929e-08  9.8244272238803499e-09  4.6063059386599394e-09  2.1053477508572983e-09  9.3785683189836818e-10  4.0711982269771873e-10  1.7219045656970719e-10  7.0945373902558127e-11  2.8470203068605469e-11  1.1125723886594360e-11  4.2330491984709691e-12  1.5677542289281881e-12  5.6508051868620233e-13  1.9817744878504115e-13  6.7609720421524027e-14  2.2432085472837823e-14  7.2364444808827406e-15  2.2691337350644657e-15  6.9143693253015658e-16  2.0467957415490525e-16  5.8842439642394021e-17  1.6423221443972539e-17  4.4486331542087265e-18  1.1690551060828321e-18  2.9792889489698846e-19  7.3599943496254417e-20  1.7617102135724962e-20  4.0838882235290646e-21  9.1636813164025831e-22  1.9892005656041029e-22  4.1747892274772964e-23  8.4654620587724207e-24  1.6573838705309003e-24  3.1310294302673769e-25  5.7096737138126042e-26  1.0127493319229248e-26  1.8721378847843547e-27  6.9046957138008805e-28  4.7170277140971335e-04  4.6911835711719197e-04  4.6924484307856796e-04  4.3668784060013074e-04  3.6390282722506567e-04  2.2733040550113349e-04  1.3510248096533940e-04  9.5301678438181503e-05  6.6974508873875641e-05  4.5985595465951369e-05  3.0801260905655708e-05  2.0151209719202163e-05  1.2888749075005543e-05  8.0617109229220003e-06  4.9306843148733474e-06  2.9479328929457810e-06  1.7222680253830937e-06  9.8287197827881205e-07  5.4770929990903928e-07  2.9793338739682956e-07  1.5815825805292758e-07  8.1913731115208080e-08  4.1382883206732042e-08  2.0389193302953546e-08  9.7952699154566185e-09  4.5877081071282817e-09  2.0945170407936566e-09  9.3194885316619915e-10  4.0406175930996338e-10  1.7067759214125053e-10  7.0226573456323030e-11  2.8141208335084567e-11  1.0980369053382629e-11  4.1709694585622871e-12  1.5420980106415240e-12  5.5481303793274246e-13  1.9419653876250159e-13  6.6113820071797641e-14  2.1887178243007913e-14  7.0440032653544505e-15  2.2032377616845603e-15  6.6955890322298942e-16  1.9763712087672824e-16  5.6644755310961599e-17  1.5758437820539288e-17  4.2537346637615128e-18  1.1136850100434759e-18  2.8268851209457150e-19  6.9536585789781918e-20  1.6567922559949995e-20  3.8215924607261747e-21  8.5289131499620430e-22  1.8405299844324643e-22  3.8378681870371889e-23  7.7268076297678989e-24  1.5007445547544965e-24  2.8097235532947718e-25  5.0713507873229194e-26  8.8879300915696442e-27  1.6190869880289773e-27  5.8880163350397858e-28  4.8265160253684492e-04  4.8041041908297548e-04  4.7888961475063839e-04  4.5365215179646589e-04  4.2091417615304104e-04  8.8883043870197781e-05  1.0759770587723024e-04  6.5887718423930563e-05  4.5960865025308613e-05  3.0917966604460029e-05  2.0243127199837380e-05  1.2943172648983344e-05  8.0902883233615835e-06  4.9443882942951407e-06  2.9539228112992847e-06  1.7244926839139725e-06  9.8341584622170692e-07  5.4761970890692779e-07  2.9766980659031158e-07  1.5790257497420983e-07  8.1719476430978250e-08  4.1252213038762216e-08  2.0307591830878061e-08  9.7475073023282677e-09  4.5610893142148554e-09  2.0802998286619938e-09  9.2464311148161037e-10  4.0044019539831022e-10  1.6894278793233437e-10  6.9422518755561955e-11  2.7780305264486282e-11  1.0823389862338547e-11  4.1047726283687928e-12  1.5150263849007465e-12  5.4407400749099429e-13  1.9006372189094057e-13  6.4570746465630843e-14  2.1328204660670185e-14  6.8475564817973725e-15  2.1362621736142172e-15  6.4740959621024573e-16  1.9053291451941564e-16  5.4435173716352996e-17  1.5092153155021673e-17  4.0589878282624173e-18  1.0585236224777627e-18  2.6755166461077960e-19  6.5513668102359847e-20  1.5532761242047236e-20  3.5637965903765415e-21  7.9078039146111643e-22  1.6958244475723192e-22  3.5120296962369169e-23  7.0181054446984780e-24  1.3519510764946453e-24  2.5083492404453366e-25  4.4821798106528882e-26  7.7670567032691610e-27  1.3962689684317291e-27  5.0178618219829591e-28  4.7596600756796804e-04  4.7211093480582425e-04  4.7090574206990989e-04  4.3120665104192285e-04  3.5838826002679031e-04  9.5391622032616112e-05  1.3599066470646788e-04  6.7201697444217067e-05  4.6133306447988581e-05  3.0869562184534194e-05  2.0175132934130892e-05  1.2892385116136382e-05  8.0574085425283453e-06  4.9242262819742117e-06  2.9417866089578372e-06  1.7173152618530185e-06  9.7918969635664002e-07  5.4515188081228493e-07  2.9624790308040348e-07  1.5708805877789349e-07  8.1261504218997461e-08  4.0999364325960353e-08  2.0171214770328490e-08  9.6753699794582924e-09  4.5238271400977241e-09  2.0615258467306959e-09  9.1542682468629623e-10  3.9603391891325850e-10  1.6689265326759430e-10  6.8494576053477762e-11  2.7371849572053380e-11  1.0648593320054239e-11  4.0320649489871312e-12  1.4856367732807128e-12  5.3253186410889014e-13  1.8566046030639553e-13  6.2939291183286356e-14  2.0741250090283844e-14  6.6425461847304775e-15  2.0667600142475250e-15  6.2454428885766315e-16  1.8323479988552356e-16  5.2175783178518887e-17  1.4413881524587505e-17  3.8615982830006055e-18  1.0028538318155225e-18  2.5234107675239849e-19  6.1488839533725952e-20  1.4501773248585948e-20  3.3082452381946822e-21  7.2951491621050564e-22  1.5538407245467856e-22  3.1941286301122818e-23  6.3308921324098739e-24  1.2086242138935704e-24  2.2201266824496326e-25  3.9230938056562257e-26  6.7127547465598449e-27  1.1893599568921648e-27  4.2196811558255893e-28  4.4687594062956388e-04  4.4152203898190876e-04  4.4424991347403851e-04  3.9982220503308712e-04  3.1486326942706944e-04  2.3052268105477734e-04  2.1775003778825886e-04  1.4671631717546360e-04  9.9256920276906126e-05  6.7818147187956478e-05  4.5918950363170230e-05  3.0568489529412601e-05  1.9950271372875374e-05  1.2749471316991482e-05  7.9728572877858798e-06  4.8759406880818399e-06  2.9147605155479050e-06  1.7023809770790660e-06  9.7103987371416186e-07  5.4072240697181205e-07  2.9385684182046781e-07  1.5580991512516145e-07  8.0583471923154014e-08  4.0643734974034431e-08  1.9987257124468340e-08  9.5819055429040988e-09  4.4770969346902257e-09  2.0386248688907133e-09  9.0444178574701536e-10  3.9088447692160025e-10  1.6453645528777162e-10  6.7443087490631472e-11  2.6914556052633639e-11  1.0454906626004373e-11  3.9522138119796690e-12  1.4536083104891612e-12  5.2003825751892513e-13  1.8092264110899846e-13  6.1193212165265708e-14  2.0116064281596410e-14  6.4251334759850211e-15  1.9933483506445844e-15  6.0048272763748697e-16  1.7558176084598463e-16  4.9814408018087953e-17  1.3707268420801128e-17  3.6566037480525647e-18  9.4521741782252478e-19  2.3664156786018855e-19  5.7347523921835398e-20  1.3444302118746501e-20  3.0469840288203559e-21  6.6709310858409031e-22  1.4096928644007609e-22  2.8726009927427919e-23  5.6386424713488915e-24  1.0648738166262592e-24  1.9324201392675616e-25  3.3679945489637767e-26  5.6733065125299616e-27  9.8826420327505417e-28  3.4567106777338324e-28  3.9902742912578952e-04  3.9615131920795133e-04  3.9463586895739579e-04  3.5564560917115869e-04  2.8188219128111037e-04  2.0323225265091898e-04  1.4181279958441103e-04  9.7602818843284443e-05  6.6799059270086176e-05  4.5185499850968446e-05  3.0072664338034111e-05  1.9638086675661996e-05  1.2563015586230977e-05  7.8652534471617749e-06  4.8153638130214482e-06  2.8812283554131476e-06  1.6840209435407437e-06  9.6106333423521044e-07  5.3534795914597236e-07  2.9098297789807539e-07  1.5428255373332931e-07  7.9780405568746457e-08  4.0226218008647620e-08  1.9772634628306197e-08  9.4732566318099557e-09  4.4231312382571569e-09  2.0122920141734413e-09  8.9185949624182390e-10  3.8500682457282239e-10  1.6185452612961910e-10  6.6249120230972091e-11  2.6396380621585681e-11  1.0235829313806030e-11  3.8620363288507320e-12  1.4174873373913174e-12  5.0596515694689153e-13  1.7559152241316266e-13  5.9230351934005440e-14  1.9413869622922064e-14  6.1811367042214849e-15  1.9110229451705153e-15  5.7351945122443351e-16  1.6701207611875183e-16  4.7172172900295511e-17  1.2917229881383967e-17  3.4275993066775165e-18  8.8088974590623991e-19  2.1913752710755405e-19  5.2735622907684129e-20  1.2268264999579026e-20  2.7568892265547269e-21  5.9791137658410183e-22  1.2502880651228695e-22  2.5179829564139866e-23  4.8775824932373815e-24  9.0744652761527529e-25  1.6188481855298416e-25  2.7667521625586313e-26  4.5581750691378000e-27  7.7718786799926775e-28  2.6772114617557907e-28  3.5593853686972330e-04  3.5738876459984875e-04  3.4556683921190532e-04  3.1151761543125818e-04  2.5300104097776007e-04  1.8909185970909331e-04  1.3549772823464757e-04  9.4883553673051477e-05  6.5419807828628432e-05  4.4395917269040628e-05  2.9600480887029485e-05  1.9356400682322166e-05  1.2397505105340493e-05  7.7696172204868918e-06  4.7607537127817742e-06  2.8503690267986749e-06  1.6666679112361410e-06  9.5137410825724952e-07  5.2996026165827267e-07  2.8800197395224428e-07  1.5264943697802696e-07  7.8895555656962454e-08  3.9752451690411102e-08  1.9523360795991653e-08  9.3443096981991619e-09  4.3578649396536406e-09  1.9799306651311311e-09  8.7618556973660032e-10  3.7759896510941357e-10  1.5844135023627314e-10  6.4717118649531247e-11  2.5726898043922500e-11  9.9511300399868315e-12  3.7442703890722070e-12  1.3701197167466106e-12  4.8744561160242038e-13  1.6855537404900465e-13  5.6633357403865496e-14  1.8482939722410356e-14  5.8571317299728429e-15  1.8015638005577019e-15  5.3763625607025408e-16  1.5560074936535834e-16  4.3652948364613835e-17  1.1865088300604369e-17  3.1227696886373450e-18  7.9533935667494072e-19  1.9588988285878633e-19  4.6621705148736176e-20  1.0712968607012437e-20  2.3744149410487465e-21  5.0704624732546342e-22  1.0419015921501773e-22  2.0570450003887646e-23  3.8952003548141345e-24  7.0594555482529863e-25  1.2216014076562920e-25  2.0148842473272648e-26  3.1890455823393485e-27  5.2705599384659387e-28  1.7933368966211433e-28  3.3973679367907601e-04  3.4437707566666481e-04  3.2645036395395535e-04  2.9376299027029934e-04  2.4121924222016500e-04  1.8303150553529874e-04  1.3251419082642061e-04  9.3423795874049989e-05  6.4643068076091663e-05  4.3948647532246790e-05  2.9330007326964277e-05  1.9188881262135626e-05  1.2292777455023742e-05  7.7037751008775894e-06  4.7193572773251268e-06  2.8243734831646582e-06  1.6504504969069973e-06  9.4132886674213489e-07  5.2382190983372101e-07  2.8431416994593629e-07  1.5047734991204423e-07  7.7642775709940830e-08  3.9047688264349540e-08  1.9136789758756358e-08  9.1377495652532015e-09  4.2503357280483615e-09  1.9254670335391388e-09  8.4935831656315070e-10  3.6475140828908188e-10  1.5246073005711452e-10  6.2011434543355300e-11  2.4537449263519378e-11  9.4431017545089638e-12  3.5334858529899253e-12  1.2851761517977492e-12  4.5420335929265710e-13  1.5592431444819028e-13  5.1974359937006594e-14  1.6815099671702190e-14  5.2778063505756826e-15  1.6063618241104913e-15  4.7385163609856543e-16  1.3539463998946340e-16  3.7449456611332144e-17  1.0020014661858641e-17  2.5913521930555992e-18  6.4718841970544902e-19  1.5593229222491346e-19  3.6201531229019091e-20  8.0872038213967630e-21  1.7355185965733876e-21  3.5706255643513446e-22  7.0251925611428714e-23  1.3176216436940505e-23  2.3460234850911529e-24  3.9430500744191799e-25  6.2075464194037456e-26  9.0693981285405309e-27  1.2375210556213060e-27  1.8986795988365463e-28  6.9197222004827984e-29  </DataArray> 
</PointData> 
</Piece>
</UnstructuredGrid>
</VTKFile>