<?xml version="1.0"?>
<VTKFile type="UnstructuredGrid"  version="0.1"  >
<UnstructuredGrid>
<Piece  NumberOfPoints="670" NumberOfCells="1192">
<Points>
<DataArray  type="Float64"  NumberOfComponents="3"  format="ascii">0 0 0  0.04 -1.31357e-10 0  0.0400579 0.0400582 0  0 0.04 0  0.08 -2.62713e-10 0  0.080123 0.0401093 0  0.12 -3.9407e-10 0  0.120183 0.040127 0  0.16 -5.25427e-10 0  0.160176 0.0400597 0  0.2 -6.56784e-10 0  0.199997 0.0399142 0  0.24 -7.8814e-10 0  0.239816 0.0400642 0  0.28 -9.19497e-10 0  0.279804 0.0401377 0  0.32 -1.05085e-09 0  0.319855 0.0401297 0  0.36 -1.18221e-09 0  0.359906 0.0400945 0  0.4 -1.31357e-09 0  0.399941 0.0400609 0  0.44 -1.44492e-09 0  0.439962 0.0400367 0  0.48 -1.57628e-09 0  0.479975 0.0400214 0  0.52 -1.70764e-09 0  0.519983 0.0400122 0  0.5600000000000001 -1.83899e-09 0  0.559987 0.0400069 0  0.6 -1.97035e-09 0  0.59999 0.040004 0  0.64 -2.10171e-09 0  0.639993 0.0400023 0  0.68 -2.23306e-09 0  0.679994 0.0400013 0  0.72 -2.36442e-09 0  0.7199950000000001 0.0400008 0  0.76 -2.49578e-09 0  0.759996 0.0400005 0  0.8 -2.62713e-09 0  0.799997 0.0400002 0  0.84 -2.75849e-09 0  0.839997 0.0400001 0  0.88 -2.88985e-09 0  0.8799979999999999 0.04 0  0.92 -3.0212e-09 0  0.919999 0.0399999 0  0.96 -3.15256e-09 0  0.959999 0.0399998 0  1 -3.28392e-09 0  1 0.0399998 0  1.04 -3.41527e-09 0  1.04 0.0399998 0  1.08 -3.54663e-09 0  1.08 0.0399998 0  1.12 -3.67799e-09 0  1.12 0.0399998 0  1.16 -3.80934e-09 0  1.16 0.0399999 0  1.2 -3.9407e-09 0  1.2 0.04 0  1.24 -4.07206e-09 0  1.24 0.04 0  1.28 -4.20341e-09 0  1.28 0.0400001 0  1.32 -4.33477e-09 0  1.32 0.0400001 0  1.36 -4.46613e-09 0  1.36 0.04 0  1.4 -4.59748e-09 0  1.4 0.04 0  1.44 -4.72884e-09 0  1.44 0.04 0  1.48 -4.8602e-09 0  1.48 0.04 0  1.52 -4.99156e-09 0  1.52 0.04 0  1.56 -5.12291e-09 0  1.56 0.04 0  1.6 -5.25427e-09 0  1.6 0.0400001 0  1.64 -5.38563e-09 0  1.64 0.0400001 0  1.68 -5.51698e-09 0  1.68 0.04 0  1.72 -5.64834e-09 0  1.72 0.04 0  1.76 -5.7797e-09 0  1.76 0.04 0  1.8 -5.91105e-09 0  1.8 0.04 0  1.84 -6.04241e-09 0  1.84 0.04 0  1.88 -6.17377e-09 0  1.88 0.0400001 0  1.92 -6.30512e-09 0  1.92 0.0400001 0  1.96 -6.43648e-09 0  1.96 0.0400001 0  2 -6.56784e-09 0  2 0.0400001 0  2.04 -6.69919e-09 0  2.04 0.0400001 0  2.08 -6.83055e-09 0  2.08 0.04 0  2.12 -6.96191e-09 0  2.12 0.04 0  2.16 -7.09326e-09 0  2.16 0.0400001 0  2.2 -7.22462e-09 0  2.2 0.04 0  2.24 -7.35598e-09 0  2.24 0.04 0  2.28 -7.48733e-09 0  2.28 0.0399999 0  2.32 -7.618690000000001e-09 0  2.32 0.04 0  2.36 -7.750049999999999e-09 0  2.36 0.04 0  2.4 -7.8814e-09 0  2.4 0.04 0  0.0401088 0.0801235 0  0 0.08 0  0.0802509 0.0802518 0  0.120434 0.0803392 0  0.160522 0.0801977 0  0.199995 0.0795328 0  0.239464 0.0802049 0  0.279544 0.08035689999999999 0  0.319711 0.0802867 0  0.359828 0.08018740000000001 0  0.399896 0.0801123 0  0.439933 0.0800646 0  0.479955 0.0800365 0  0.519968 0.08002049999999999 0  0.559976 0.0800116 0  0.599982 0.0800066 0  0.6399860000000001 0.0800039 0  0.679989 0.0800023 0  0.719991 0.0800014 0  0.759992 0.0800008 0  0.799994 0.0800004 0  0.839995 0.08000019999999999 0  0.879996 0.0799999 0  0.919997 0.07999970000000001 0  0.959999 0.0799996 0  1 0.0799995 0  1.04 0.0799995 0  1.08 0.0799996 0  1.12 0.07999970000000001 0  1.16 0.0799998 0  1.2 0.08 0  1.24 0.0800001 0  1.28 0.0800001 0  1.32 0.0800001 0  1.36 0.08 0  1.4 0.0799999 0  1.44 0.0799999 0  1.48 0.0799999 0  1.52 0.0799999 0  1.56 0.08 0  1.6 0.0800001 0  1.64 0.0800001 0  1.68 0.08 0  1.72 0.0799999 0  1.76 0.0799999 0  1.8 0.0799999 0  1.84 0.0799999 0  1.88 0.08 0  1.92 0.0800001 0  1.96 0.0800001 0  2 0.0800001 0  2.04 0.08 0  2.08 0.0799999 0  2.12 0.0799999 0  2.16 0.08 0  2.2 0.08 0  2.24 0.0799999 0  2.28 0.0799998 0  2.32 0.0799999 0  2.36 0.0799999 0  2.4 0.08 0  0.0401262 0.120184 0  0 0.12 0  0.0803378 0.120435 0  0.120779 0.12078 0  0.161485 0.120859 0  0.199996 0.117814 0  0.238503 0.120866 0  0.279195 0.120798 0  0.319616 0.120473 0  0.359799 0.120256 0  0.39988 0.120136 0  0.439921 0.120073 0  0.479944 0.120039 0  0.519958 0.120022 0  0.5599690000000001 0.120012 0  0.599976 0.120007 0  0.639981 0.120004 0  0.679985 0.120002 0  0.719987 0.120002 0  0.7599900000000001 0.120001 0  0.799991 0.12 0  0.839993 0.12 0  0.879995 0.12 0  0.919996 0.12 0  0.959998 0.119999 0  1 0.119999 0  1.04 0.119999 0  1.08 0.119999 0  1.12 0.12 0  1.16 0.12 0  1.2 0.12 0  1.24 0.12 0  1.28 0.12 0  1.32 0.12 0  1.36 0.12 0  1.4 0.12 0  1.44 0.12 0  1.48 0.12 0  1.52 0.12 0  1.56 0.12 0  1.6 0.12 0  1.64 0.12 0  1.68 0.12 0  1.72 0.12 0  1.76 0.12 0  1.8 0.12 0  1.84 0.12 0  1.88 0.12 0  1.92 0.12 0  1.96 0.12 0  2 0.12 0  2.04 0.12 0  2.08 0.12 0  2.12 0.12 0  2.16 0.12 0  2.2 0.12 0  2.24 0.12 0  2.28 0.12 0  2.32 0.12 0  2.36 0.12 0  2.4 0.12 0  0.0400582 0.160177 0  0 0.16 0  0.0801954 0.160525 0  0.120857 0.161488 0  0.164645 0.164645 0  0.2 0.15 0  0.235355 0.164645 0  0.279119 0.161498 0  0.319759 0.16055 0  0.359874 0.160228 0  0.399906 0.160104 0  0.439925 0.160051 0  0.479941 0.160027 0  0.519954 0.160014 0  0.559964 0.160008 0  0.5999719999999999 0.160005 0  0.639978 0.160003 0  0.679982 0.160002 0  0.719985 0.160001 0  0.759988 0.160001 0  0.79999 0.16 0  0.839992 0.16 0  0.8799940000000001 0.16 0  0.919996 0.159999 0  0.959998 0.159999 0  1 0.159999 0  1.04 0.159999 0  1.08 0.159999 0  1.12 0.16 0  1.16 0.16 0  1.2 0.16 0  1.24 0.16 0  1.28 0.16 0  1.32 0.16 0  1.36 0.16 0  1.4 0.16 0  1.44 0.16 0  1.48 0.16 0  1.52 0.16 0  1.56 0.16 0  1.6 0.16 0  1.64 0.16 0  1.68 0.16 0  1.72 0.16 0  1.76 0.16 0  1.8 0.16 0  1.84 0.16 0  1.88 0.16 0  1.92 0.16 0  1.96 0.16 0  2 0.16 0  2.04 0.16 0  2.08 0.16 0  2.12 0.16 0  2.16 0.16 0  2.2 0.16 0  2.24 0.16 0  2.28 0.16 0  2.32 0.16 0  2.36 0.16 0  2.4 0.16 0  0.0399111 0.2 0  0 0.2 0  0.0795281 0.2 0  0.117811 0.2 0  0.15 0.2 0  0.282167 0.2 0  0.25 0.2 0  0.320429 0.2 0  0.36003 0.200001 0  0.399944 0.200001 0  0.439934 0.200001 0  0.479942 0.200001 0  0.519953 0.200001 0  0.559963 0.200001 0  0.59997 0.200001 0  0.639976 0.200001 0  0.6799809999999999 0.200001 0  0.719984 0.200001 0  0.759987 0.200001 0  0.799989 0.2 0  0.839991 0.2 0  0.879993 0.2 0  0.919996 0.199999 0  0.959998 0.199999 0  1 0.199999 0  1.04 0.199999 0  1.08 0.199999 0  1.12 0.2 0  1.16 0.2 0  1.2 0.2 0  1.24 0.2 0  1.28 0.2 0  1.32 0.2 0  1.36 0.2 0  1.4 0.2 0  1.44 0.2 0  1.48 0.2 0  1.52 0.2 0  1.56 0.2 0  1.6 0.2 0  1.64 0.2 0  1.68 0.2 0  1.72 0.2 0  1.76 0.2 0  1.8 0.2 0  1.84 0.2 0  1.88 0.2 0  1.92 0.2 0  1.96 0.2 0  2 0.2 0  2.04 0.2 0  2.08 0.2 0  2.12 0.2 0  2.16 0.2 0  2.2 0.2 0  2.24 0.2 0  2.28 0.2 0  2.32 0.2 0  2.36 0.2 0  2.4 0.2 0  0.0400582 0.239823 0  0 0.24 0  0.0801953 0.239475 0  0.120857 0.238513 0  0.164645 0.235355 0  0.279119 0.238502 0  0.235355 0.235355 0  0.319759 0.239451 0  0.359873 0.239774 0  0.399905 0.239898 0  0.439925 0.239951 0  0.479941 0.239976 0  0.519954 0.239988 0  0.559964 0.239994 0  0.5999719999999999 0.239997 0  0.639977 0.239999 0  0.679982 0.24 0  0.719985 0.24 0  0.759987 0.24 0  0.79999 0.24 0  0.839992 0.24 0  0.8799940000000001 0.24 0  0.919996 0.239999 0  0.959998 0.239999 0  1 0.239999 0  1.04 0.239999 0  1.08 0.239999 0  1.12 0.24 0  1.16 0.24 0  1.2 0.24 0  1.24 0.24 0  1.28 0.24 0  1.32 0.24 0  1.36 0.24 0  1.4 0.24 0  1.44 0.24 0  1.48 0.24 0  1.52 0.24 0  1.56 0.24 0  1.6 0.24 0  1.64 0.24 0  1.68 0.24 0  1.72 0.24 0  1.76 0.24 0  1.8 0.24 0  1.84 0.24 0  1.88 0.24 0  1.92 0.24 0  1.96 0.24 0  2 0.24 0  2.04 0.24 0  2.08 0.24 0  2.12 0.24 0  2.16 0.24 0  2.2 0.24 0  2.24 0.24 0  2.28 0.24 0  2.32 0.24 0  2.36 0.24 0  2.4 0.24 0  0.0401261 0.279816 0  0 0.28 0  0.0803376 0.279565 0  0.120778 0.27922 0  0.161485 0.279141 0  0.2 0.25 0  0.199996 0.282186 0  0.238503 0.279135 0  0.279195 0.279202 0  0.319616 0.279528 0  0.359799 0.279745 0  0.39988 0.279865 0  0.43992 0.279929 0  0.479944 0.279962 0  0.519958 0.27998 0  0.559968 0.27999 0  0.599976 0.279995 0  0.639981 0.279998 0  0.679984 0.279999 0  0.719987 0.28 0  0.759989 0.28 0  0.799991 0.28 0  0.839993 0.28 0  0.879995 0.28 0  0.919997 0.279999 0  0.959998 0.279999 0  1 0.279999 0  1.04 0.279999 0  1.08 0.28 0  1.12 0.28 0  1.16 0.28 0  1.2 0.28 0  1.24 0.28 0  1.28 0.28 0  1.32 0.28 0  1.36 0.28 0  1.4 0.28 0  1.44 0.28 0  1.48 0.28 0  1.52 0.28 0  1.56 0.28 0  1.6 0.28 0  1.64 0.28 0  1.68 0.28 0  1.72 0.28 0  1.76 0.28 0  1.8 0.28 0  1.84 0.28 0  1.88 0.28 0  1.92 0.28 0  1.96 0.28 0  2 0.28 0  2.04 0.28 0  2.08 0.28 0  2.12 0.28 0  2.16 0.28 0  2.2 0.28 0  2.24 0.28 0  2.28 0.28 0  2.32 0.28 0  2.36 0.28 0  2.4 0.28 0  0.0401086 0.319877 0  0 0.32 0  0.08025060000000001 0.319748 0  0.120433 0.319661 0  0.160522 0.319802 0  0.199995 0.320467 0  0.239464 0.319795 0  0.279543 0.319643 0  0.31971 0.319714 0  0.359828 0.319813 0  0.399895 0.319889 0  0.439933 0.319937 0  0.479955 0.319965 0  0.519968 0.319981 0  0.559976 0.31999 0  0.599982 0.319995 0  0.6399860000000001 0.319998 0  0.679989 0.319999 0  0.719991 0.32 0  0.759992 0.32 0  0.799994 0.32 0  0.839995 0.32 0  0.879996 0.32 0  0.919998 0.32 0  0.959999 0.32 0  1 0.32 0  1.04 0.32 0  1.08 0.32 0  1.12 0.32 0  1.16 0.32 0  1.2 0.32 0  1.24 0.32 0  1.28 0.32 0  1.32 0.32 0  1.36 0.32 0  1.4 0.32 0  1.44 0.32 0  1.48 0.32 0  1.52 0.32 0  1.56 0.32 0  1.6 0.32 0  1.64 0.32 0  1.68 0.32 0  1.72 0.32 0  1.76 0.32 0  1.8 0.32 0  1.84 0.32 0  1.88 0.32 0  1.92 0.32 0  1.96 0.32 0  2 0.32 0  2.04 0.32 0  2.08 0.32 0  2.12 0.32 0  2.16 0.32 0  2.2 0.32 0  2.24 0.32 0  2.28 0.32 0  2.32 0.32 0  2.36 0.32 0  2.4 0.32 0  0.0400579 0.359942 0  0 0.36 0  0.0801229 0.359891 0  0.120183 0.359873 0  0.160175 0.35994 0  0.199997 0.360086 0  0.239816 0.359936 0  0.279804 0.359862 0  0.319855 0.359871 0  0.359906 0.359906 0  0.399941 0.35994 0  0.439962 0.359964 0  0.479975 0.359979 0  0.5199820000000001 0.359989 0  0.559987 0.359994 0  0.59999 0.359997 0  0.639993 0.359998 0  0.679994 0.359999 0  0.7199950000000001 0.36 0  0.759996 0.36 0  0.799997 0.36 0  0.839997 0.36 0  0.8799979999999999 0.36 0  0
[...]
<PointData  Scalars="f_10391-2"> 
<DataArray  type="Float64"  Name="f_10391-2"  format="ascii">3.2365097341139677e-04  3.2277620819396244e-04  3.3993924168962560e-04  3.4094052682735867e-04  3.0787568793780290e-04  3.2689446415374727e-04  2.7110141581320396e-04  2.8782572576294000e-04  2.1868331903847680e-04  2.2949565683144091e-04  1.6472215343468936e-04  1.7041514013213182e-04  1.1834515069133752e-04  1.2094375796190378e-04  8.2505068602808313e-05  8.3624246096729865e-05  5.6260756460914647e-05  5.6753613526455622e-05  3.7600598308913670e-05  3.7826836566503963e-05  2.4616903239622639e-05  2.4720212045028353e-05  1.5769851849005506e-05  1.5812459622157188e-05  9.8743114642277008e-06  9.8867828172822117e-06  6.0380140773504808e-06  6.0367503807259559e-06  3.6032963157967405e-06  3.5970491972538614e-06  2.0975014975390362e-06  2.0904707253366682e-06  1.1904927084818587e-06  1.1844355166995723e-06  6.5861568859938908e-07  6.5405677294268108e-07  3.5506161882964278e-07  3.5190201033437701e-07  1.8648566327722752e-07  1.8442735389208072e-07  9.5405844726623856e-08  9.4131547725596424e-08  4.7535572049632106e-08  4.6781816897045527e-08  2.3062782951805241e-08  2.2633918306960084e-08  1.0894110853022427e-08  1.0659033712480100e-08  5.0095396604747092e-09  4.8852881527572821e-09  2.2421870076907870e-09  2.1786504080418336e-09  9.7667825154926073e-10  9.4526557546933465e-10  4.1397591520058256e-10  3.9893763841002259e-10  1.7071755051617319e-10  1.6374254109040209e-10  6.8484734258082340e-11  6.5349076910080132e-11  2.6720946254531464e-11  2.5354231473006219e-11  1.0138624605574297e-11  9.5609529467336088e-12  3.7402389014317959e-12  3.5034250537351871e-12  1.3413223317075203e-12  1.2471563891103866e-12  4.6751719408049299e-13  4.3119600254908523e-13  1.5834588041188491e-13  1.4475599485151676e-13  5.2104003258472389e-14  4.7171663043443529e-14  1.6653182277048245e-14  1.4916771388080938e-14  5.1687778744686714e-15  4.5758735204095017e-15  1.5575473486639362e-15  1.3612071402459110e-15  4.5556579639575644e-16  3.9251622519537373e-16  1.2930194933270911e-16  1.0967082507258388e-16  3.5602820775455354e-17  2.9677233881939872e-17  9.5074416346487094e-18  7.7737514642707432e-18  2.4615488326579851e-18  1.9699803429346073e-18  6.1769515235894118e-19  4.8265010850672271e-19  1.5017722515036797e-19  1.1423919887416038e-19  3.5361222192513199e-20  2.6099305184159773e-20  8.0603598646895950e-21  5.7494108356259531e-21  1.7777682153466840e-21  1.2197067897105286e-21  3.7918619304169588e-22  2.4880465693638253e-22  7.8165844573000598e-23  4.8707295326813604e-23  1.5561719133377427e-23  9.1280870676914008e-24  2.9895970333963893e-24  1.6321889354025792e-24  5.5367634408122676e-25  2.7717787763872111e-25  9.8736441692927499e-26  4.4403522061555598e-26  1.6930854853576186e-26  6.6406323207573268e-27  2.7878018156604831e-27  9.1147712046619426e-28  4.4125319084235765e-28  1.1205271872962109e-28  6.9849077310957567e-29  1.2941634578044847e-29  2.3223382628262021e-29  3.4083112201335373e-30  3.8063938317317694e-04  3.7859846598903762e-04  3.7387025716321205e-04  3.3162712430811927e-04  2.5896507015214191e-04  1.8560283763280702e-04  1.2739170834348803e-04  8.6340218328962971e-05  5.8067612050282578e-05  3.8546527417024937e-05  2.5131167529850138e-05  1.6044190216028747e-05  1.0012810994613025e-05  6.1023644180000827e-06  3.6295283517242426e-06  2.1056399564841605e-06  1.1910392917300158e-06  6.5663225001923906e-07  3.5273118443712762e-07  1.8457808083900757e-07  9.4062376746085135e-08  4.6674209258037386e-08  2.2546140216840729e-08  1.0600401888918479e-08  4.8499901279901663e-09  2.1590754770364675e-09  9.3503077618811225e-10  3.9384445205794764e-10  1.6131724547710803e-10  6.4239963705381667e-11  2.4866008542068144e-11  9.3537624840454883e-12  3.4185683191472184e-12  1.2135929377775370e-12  4.1836963644845559e-13  1.4001907389308334e-13  4.5480958730031632e-14  1.4333621878340077e-14  4.3815477274630904e-15  1.2986664851458903e-15  3.7308728490263392e-16  1.0384869709413590e-16  2.7995845817892689e-17  7.3063446748879112e-18  1.8451013345374046e-18  4.5064983707843906e-19  1.0639669330184988e-19  2.4268488868380298e-20  5.3447225608050141e-21  1.1358095916074058e-21  2.3275988416088224e-22  4.5968679952562662e-23  8.7442214768736976e-24  1.6013895167858055e-24  2.8230494593990919e-25  4.7921657804624156e-26  7.8429315850240699e-27  1.2415152825156974e-27  1.9198839984732469e-28  3.0783707271109509e-29  1.0164828974746947e-29  4.2151609393623204e-04  4.1800022497901190e-04  4.1952218336763946e-04  3.7903423025541385e-04  2.9605514024812484e-04  2.0302979147701327e-04  1.3244105456898273e-04  8.8062389255456899e-05  5.9110049467182949e-05  3.9276554976240935e-05  2.5610067403143922e-05  1.6333672225217271e-05  1.0176973723044788e-05  6.1907693798350534e-06  3.6749500787085892e-06  2.1280384189370421e-06  1.2015992170396300e-06  6.6136141207180322e-07  3.5472356419344904e-07  1.8534120808665534e-07  9.4318569495097717e-08  4.6735397479496212e-08  2.2544078501533643e-08  1.0584700567082299e-08  4.8359734350457632e-09  2.1496802615145068e-09  9.2956946712844710e-10  3.9093505244536889e-10  1.5986511355532923e-10  6.3552959490262671e-11  2.4555870789838133e-11  9.2195933803374348e-12  3.3627889201278313e-12  1.1912651497916723e-12  4.0975346301495444e-13  1.3681091089964479e-13  4.4327710710046356e-14  1.3933252005167288e-14  4.2472832192148894e-15  1.2551700178702969e-15  3.5947541087239680e-16  9.9734251922052330e-17  2.6794796337281018e-17  6.9678391410559830e-18  1.7530115457496323e-18  4.2647470673251389e-19  1.0027426734973517e-19  2.2772995677433639e-20  4.9924173543985879e-21  1.0557530690372558e-21  2.1520201878171817e-22  4.2247526623801998e-23  7.9803917671223926e-24  1.4489714046337469e-24  2.5257059729265095e-25  4.2205424126678885e-26  6.7492679847326531e-27  1.0310101085734720e-27  1.5073928419164929e-28  2.2194984548289379e-29  6.5753570274346730e-30  4.4777504958235165e-04  4.4529483185956029e-04  4.4530243931796158e-04  4.1356049494104430e-04  3.4287100991790587e-04  2.1085376477100027e-04  1.2274387744259926e-04  8.5173583794181406e-05  5.8822013649342345e-05  3.9600166866280918e-05  2.5942189797959267e-05  1.6559195893226684e-05  1.0309286671569530e-05  6.2624822275958646e-06  3.7118062455006484e-06  2.1460528451054738e-06  1.2099766213931053e-06  6.6504729788465871e-07  3.5622330937229876e-07  1.8588818120226175e-07  9.4478133235855954e-08  4.6757031156103778e-08  2.2526820376686592e-08  1.0563236956426998e-08  4.8200084078098039e-09  2.1397512248548196e-09  9.2400318854250379e-10  3.8803356010306189e-10  1.5843729093195454e-10  6.2884145348553918e-11  2.4256047584770492e-11  9.0905284148085580e-12  3.3093200269224456e-12  1.1699146582153525e-12  4.0152737268908128e-13  1.3375054795249069e-13  4.3227783961234584e-14  1.3551209013105983e-14  4.1190197998729647e-15  1.2135431066673928e-15  3.4641564342417650e-16  9.5773594370175396e-17  2.5633818942364523e-17  6.6389576478855451e-18  1.6629916991263549e-18  4.0267139617123018e-19  9.4195107858555155e-20  2.1273799069121415e-20  4.6354807035540533e-21  9.7372705161884996e-22  1.9701107667403397e-22  3.8355012808193926e-23  7.1768565722785198e-24  1.2889810245375503e-24  2.2185481587251977e-25  3.6522891635890271e-26  5.7374670983315089e-27  8.5797048133613463e-28  1.2231104228163019e-28  1.7501208738838481e-29  5.0835561928607339e-30  4.5863448890980476e-04  4.5646256630269157e-04  4.5493863105779082e-04  4.3032808044743062e-04  3.9846444372242606e-04  7.9185282909499126e-05  9.6784630693577279e-05  5.7837639996347221e-05  3.9594331701459981e-05  2.6057885837198030e-05  1.6646603246391909e-05  1.0359746682774373e-05  6.2883655999392723e-06  3.7239239907730535e-06  2.1512132127124126e-06  1.2118431285367029e-06  6.6549520556840654e-07  3.5615865935654109e-07  1.8569301224651990e-07  9.4294951900177402e-08  4.6623212419926306e-08  2.2440564787721644e-08  1.0511794509994791e-08  4.7913078831161405e-09  2.1245417179206317e-09  9.1629705371594597e-10  3.8428586516389204e-10  1.5668318049420616e-10  6.2092642267703798e-11  2.3911301071583392e-11  8.9454594556141619e-12  3.2503084841649112e-12  1.1466998212309336e-12  3.9269295554254753e-13  1.3049786071162527e-13  4.2069031669203336e-14  1.3151793568671748e-14  3.9858146909732792e-15  1.1705664647720433e-15  3.3300359334414204e-16  9.1725721227654955e-17  2.4452605418906441e-17  6.3057734747016905e-18  1.5721753189808602e-18  3.7875909388967600e-19  8.8115285402388404e-20  1.9781735898185537e-20  4.2822142827540328e-21  8.9307808847793909e-22  1.7926912204784029e-22  3.4596751129172304e-23  6.4109724465096728e-24  1.1389989251273094e-24  1.9367211907684560e-25  3.1451294586615981e-26  4.8657509080072330e-27  7.1531789616651974e-28  1.0008303550266030e-28  1.4037056023839188e-29  4.0170189160351655e-30  4.5181243856701344e-04  4.4808605563361386e-04  4.4682356082682807e-04  4.0818878650281847e-04  3.3749649442535250e-04  8.5267129180411033e-05  1.2359302725389179e-04  5.9037476757593078e-05  3.9735875105806299e-05  2.6002073286653424e-05  1.6578083274251027e-05  1.0310294471050025e-05  6.2571054797278815e-06  3.7051886674020457e-06  2.1402195802788294e-06  1.2055194141553400e-06  6.6188841651835333e-07  3.5412586356856116e-07  1.8456586063497701e-07  9.3676207407306349e-08  4.6290605424393110e-08  2.2265451869893208e-08  1.0421900229041785e-08  4.7461708456690542e-09  2.1024560429807283e-09  9.0577790855147052e-10  3.7941412539292558e-10  1.5449032421166100e-10  6.1134057044043835e-11  2.3504523931247197e-11  8.7779577271160902e-12  3.1834016659449218e-12  1.1207833699446767e-12  3.8296077957219172e-13  1.2695581769116704e-13  4.0819954018813113e-14  1.2725117270092729e-14  3.8446715092576203e-15  1.1253654926835165e-15  3.1899384697009470e-16  8.7524575181090298e-17  2.3234145519347273e-17  5.9641083784779191e-18  1.4795855152738447e-18  3.5452028766795035e-19  8.1988406478455018e-20  1.8287150345061212e-20  3.9305696578068133e-21  8.1333256519849026e-22  1.6185076519937066e-22  3.0935421248296224e-23  5.6710715085503545e-24  9.9541457048304021e-25  1.6695205791485120e-25  2.6690927522567635e-26  4.0554109992432475e-27  5.8375109027465694e-28  7.9656134582001171e-29  1.0847653014865117e-29  3.0223437063111244e-30  4.2286700972737982e-04  4.1773382234316394e-04  4.2015842198738667e-04  3.7700163314172223e-04  2.9484867898744071e-04  2.1392564933543642e-04  2.0133216442241050e-04  1.3357912621220658e-04  8.8779697048870702e-05  5.9531459612445809e-05  3.9487877791827313e-05  2.5697539671479978e-05  1.6358362998386725e-05  1.0173770116540396e-05  6.1779366233803120e-06  3.6608990724392683e-06  2.1159813301121069e-06  1.1924575750387663e-06  6.5495500195497365e-07  3.5047466092226372e-07  1.8266309586900106e-07  9.2697496099378536e-08  4.5792920297381561e-08  2.2016052594788279e-08  1.0299017007355527e-08  4.6868472591147174e-09  2.0743558516351084e-09  8.9276272252581238e-10  3.7352737350100955e-10  1.5189408298833780e-10  6.0018843509494093e-11  2.3038339723157564e-11  8.5884653558964881e-12  3.1085571662271452e-12  1.0920754977002179e-12  3.7227307887375638e-13  1.2309569193182641e-13  3.9468004271531352e-14  1.2266151023853966e-14  3.6937024207469223e-15  1.0772692038558900e-15  3.0415908570075645e-16  8.3096434539617273e-17  2.1955485846925736e-17  5.6070872012471177e-18  1.3832380438197369e-18  3.2940246038357688e-19  7.5665888621641077e-20  1.6751423505451552e-20  3.5708389331705505e-21  7.3212948096628549e-22  1.4420049752932149e-22  2.7244649827051479e-23  4.9293997611118134e-24  8.5236102128205000e-25  1.4050715948311881e-25  2.2013787978183307e-26  3.2656140023801566e-27  4.5667518940025224e-28  6.0144682244645616e-29  7.8589036284525779e-30  2.1161040428804575e-30  3.7579725175728096e-04  3.7309641244560600e-04  3.7134056018659308e-04  3.3352736600178451e-04  2.6244901350187057e-04  1.8704878258734715e-04  1.2865269097133873e-04  8.7060314759250602e-05  5.8480184043907077e-05  3.8749739337809803e-05  2.5209155595031161e-05  1.6056579828980206e-05  9.9967203039511257e-06  6.0776349643925382e-06  3.6055419589393824e-06  2.0860013694539404e-06  1.1764412473511749e-06  6.4649082174515471e-07  3.4605411084269305e-07  1.8037949056831679e-07  9.1529528963416116e-08  4.5203852859391196e-08  2.1723251617836981e-08  1.0155609724867784e-08  4.6178760837453052e-09  2.0418868926861485e-09  8.7778813741662852e-10  3.6678058244214343e-10  1.4892896527128351e-10  5.8748824098912911e-11  2.2508778188464308e-11  8.3736871580646200e-12  3.0238905142830983e-12  1.0596561567123196e-12  3.6022221243582839e-13  1.1874927625651753e-13  3.7947676464941637e-14  1.1750634710440309e-14  3.5243230620911885e-15  1.0233667291820941e-15  2.8755158136951255e-16  7.8144651370362979e-17  2.0527288277623341e-17  5.2088123888027535e-18  1.2759055959807503e-18  3.0146401405780765e-19  6.8645757116314439e-20  1.5049723251327882e-20  3.1731836475452707e-21  6.4262031930993128e-22  1.2481101155364609e-22  2.3206888281260422e-23  4.1220783661405672e-24  6.9761013867139475e-25  1.1212083446514034e-25  1.7042209721267040e-26  2.4365949515723776e-27  3.2548751424006489e-28  4.0467539568717083e-29  4.9615130031513107e-30  1.2855144134770248e-30  3.3368468372715069e-04  3.3516029600648623e-04  3.2349915334577422e-04  2.9055352843951056e-04  2.3432011847044962e-04  1.7326822414635054e-04  1.2247436898350539e-04  8.4382973487268152e-05  5.7118176090797689e-05  3.7973496863256421e-05  2.4749582718940805e-05  1.5785971453463772e-05  9.8401145537083878e-06  5.9886799265967713e-06  3.5557294136740167e-06  2.0584680757321958e-06  1.1613477399520579e-06  6.3830138790843282e-07  3.4164590953932057e-07  1.7802756957611458e-07  9.0291171399689472e-08  4.4561108913204947e-08  2.1394674893738181e-08  9.9909648137586509e-09  4.5369909427662021e-09  2.0030898896811344e-09  8.5960356268143546e-10  3.5847304797467494e-10  1.4523353656413177e-10  5.7149749022186730e-11  2.1836180682640815e-11  8.0988671124179263e-12  2.9148696645419938e-12  1.0176872793005321e-12  3.4455073425461887e-13  1.1307541485922687e-13  3.5956714873738890e-14  1.1073780276620848e-14  3.3014751032037845e-15  9.5233826132401086e-16  2.6564423779042362e-16  7.1608918529699848e-17  1.8642130654169208e-17  4.6833571217590293e-18  1.1344483920478535e-18  2.6470546411246383e-19  5.9431735576290952e-20  1.2823466119914832e-20  2.6551356722337242e-21  5.2663285225465761e-22  9.9853205990138889e-23  1.8052536784062188e-23  3.1020434774799522e-24  5.0455786935510916e-25  7.7264025930005879e-26  1.1056826795363494e-26  1.4631548696697030e-27  1.7633864656423178e-28  1.9053458379817677e-29  2.0132294875816238e-30  5.1951707352822438e-31  3.1789493320865129e-04  3.2245170296125585e-04  3.0493004691419797e-04  2.7334347302174694e-04  2.2290288120147792e-04  1.6739001138249391e-04  1.1957512772640648e-04  8.2960647649182295e-05  5.6359930401804110e-05  3.7537526194607509e-05  2.4487443918515880e-05  1.5625178161528370e-05  9.7409148930250035e-06  5.9273709092880950e-06  3.5179792664785685e-06  2.0353469039823687e-06  1.1473325699635541e-06  6.2990046149834990e-07  3.3669479922458239e-07  1.7516750021147282e-07  8.8675905124601874e-08  4.3670196656808375e-08  2.0916429617785275e-08  9.7412055479919326e-09  4.4101993605977844e-09  1.9405219323281296e-09  8.2962573772565471e-10  3.4453452915677846e-10  1.3894618210005652e-10  5.4399088861901232e-11  2.0669318858083478e-11  7.6190047701127068e-12  2.7236069822761329e-12  9.4381886939486672e-13  3.1691345348047075e-13  1.0306099975873941e-13  3.2443326627425903e-14  9.8807185999261654e-15  2.9094719304261762e-15  8.2775890451381444e-16  2.2736559744095271e-16  6.0242415374521899e-17  1.5381944463481518e-17  3.7806143572916722e-18  8.9327793851289931e-19  2.0258694639898039e-19  4.4017835809268274e-20  9.1421238200533264e-21  1.8097627422717997e-21  3.4020618069307588e-22  6.0429621794853187e-23  1.0071936363927625e-23  1.5588516057621773e-24  2.2027426317331277e-25  2.7541886343178355e-26  2.8370385243806367e-27  1.8667605901067882e-28  -8.2502150746454114e-30  -5.4961264833671829e-30  -9.9430779913953214e-31  -9.7094516006894455e-32  </DataArray> 
</PointData> 
</Piece>
</UnstructuredGrid>
</VTKFile>