<?xml version="1.0"?>
<VTKFile type="UnstructuredGrid"  version="0.1"  >
<UnstructuredGrid>
<Piece  NumberOfPoints="670" NumberOfCells="1192">
<Points>
<DataArray  type="Float64"  NumberOfComponents="3"  format="ascii">0 0 0  0.04 -1.31357e-10 0  0.0400579 0.0400582 0  0 0.04 0  0.08 -2.62713e-10 0  0.080123 0.0401093 0  0.12 -3.9407e-10 0  0.120183 0.040127 0  0.16 -5.25427e-10 0  0.160176 0.0400597 0  0.2 -6.56784e-10 0  0.199997 0.0399142 0  0.24 -7.8814e-10 0  0.239816 0.0400642 0  0.28 -9.19497e-10 0  0.279804 0.0401377 0  0.32 -1.05085e-09 0  0.319855 0.0401297 0  0.36 -1.18221e-09 0  0.359906 0.0400945 0  0.4 -1.31357e-09 0  0.399941 0.0400609 0  0.44 -1.44492e-09 0  0.439962 0.0400367 0  0.48 -1.57628e-09 0  0.479975 0.0400214 0  0.52 -1.70764e-09 0  0.519983 0.0400122 0  0.5600000000000001 -1.83899e-09 0  0.559987 0.0400069 0  0.6 -1.97035e-09 0  0.59999 0.040004 0  0.64 -2.10171e-09 0  0.639993 0.0400023 0  0.68 -2.23306e-09 0  0.679994 0.0400013 0  0.72 -2.36442e-09 0  0.7199950000000001 0.0400008 0  0.76 -2.49578e-09 0  0.759996 0.0400005 0  0.8 -2.62713e-09 0  0.799997 0.0400002 0  0.84 -2.75849e-09 0  0.839997 0.0400001 0  0.88 -2.88985e-09 0  0.8799979999999999 0.04 0  0.92 -3.0212e-09 0  0.919999 0.0399999 0  0.96 -3.15256e-09 0  0.959999 0.0399998 0  1 -3.28392e-09 0  1 0.0399998 0  1.04 -3.41527e-09 0  1.04 0.0399998 0  1.08 -3.54663e-09 0  1.08 0.0399998 0  1.12 -3.67799e-09 0  1.12 0.0399998 0  1.16 -3.80934e-09 0  1.16 0.0399999 0  1.2 -3.9407e-09 0  1.2 0.04 0  1.24 -4.07206e-09 0  1.24 0.04 0  1.28 -4.20341e-09 0  1.28 0.0400001 0  1.32 -4.33477e-09 0  1.32 0.0400001 0  1.36 -4.46613e-09 0  1.36 0.04 0  1.4 -4.59748e-09 0  1.4 0.04 0  1.44 -4.72884e-09 0  1.44 0.04 0  1.48 -4.8602e-09 0  1.48 0.04 0  1.52 -4.99156e-09 0  1.52 0.04 0  1.56 -5.12291e-09 0  1.56 0.04 0  1.6 -5.25427e-09 0  1.6 0.0400001 0  1.64 -5.38563e-09 0  1.64 0.0400001 0  1.68 -5.51698e-09 0  1.68 0.04 0  1.72 -5.64834e-09 0  1.72 0.04 0  1.76 -5.7797e-09 0  1.76 0.04 0  1.8 -5.91105e-09 0  1.8 0.04 0  1.84 -6.04241e-09 0  1.84 0.04 0  1.88 -6.17377e-09 0  1.88 0.0400001 0  1.92 -6.30512e-09 0  1.92 0.0400001 0  1.96 -6.43648e-09 0  1.96 0.0400001 0  2 -6.56784e-09 0  2 0.0400001 0  2.04 -6.69919e-09 0  2.04 0.0400001 0  2.08 -6.83055e-09 0  2.08 0.04 0  2.12 -6.96191e-09 0  2.12 0.04 0  2.16 -7.09326e-09 0  2.16 0.0400001 0  2.2 -7.22462e-09 0  2.2 0.04 0  2.24 -7.35598e-09 0  2.24 0.04 0  2.28 -7.48733e-09 0  2.28 0.0399999 0  2.32 -7.618690000000001e-09 0  2.32 0.04 0  2.36 -7.750049999999999e-09 0  2.36 0.04 0  2.4 -7.8814e-09 0  2.4 0.04 0  0.0401088 0.0801235 0  0 0.08 0  0.0802509 0.0802518 0  0.120434 0.0803392 0  0.160522 0.0801977 0  0.199995 0.0795328 0  0.239464 0.0802049 0  0.279544 0.08035689999999999 0  0.319711 0.0802867 0  0.359828 0.08018740000000001 0  0.399896 0.0801123 0  0.439933 0.0800646 0  0.479955 0.0800365 0  0.519968 0.08002049999999999 0  0.559976 0.0800116 0  0.599982 0.0800066 0  0.6399860000000001 0.0800039 0  0.679989 0.0800023 0  0.719991 0.0800014 0  0.759992 0.0800008 0  0.799994 0.0800004 0  0.839995 0.08000019999999999 0  0.879996 0.0799999 0  0.919997 0.07999970000000001 0  0.959999 0.0799996 0  1 0.0799995 0  1.04 0.0799995 0  1.08 0.0799996 0  1.12 0.07999970000000001 0  1.16 0.0799998 0  1.2 0.08 0  1.24 0.0800001 0  1.28 0.0800001 0  1.32 0.0800001 0  1.36 0.08 0  1.4 0.0799999 0  1.44 0.0799999 0  1.48 0.0799999 0  1.52 0.0799999 0  1.56 0.08 0  1.6 0.0800001 0  1.64 0.0800001 0  1.68 0.08 0  1.72 0.0799999 0  1.76 0.0799999 0  1.8 0.0799999 0  1.84 0.0799999 0  1.88 0.08 0  1.92 0.0800001 0  1.96 0.0800001 0  2 0.0800001 0  2.04 0.08 0  2.08 0.0799999 0  2.12 0.0799999 0  2.16 0.08 0  2.2 0.08 0  2.24 0.0799999 0  2.28 0.0799998 0  2.32 0.0799999 0  2.36 0.0799999 0  2.4 0.08 0  0.0401262 0.120184 0  0 0.12 0  0.0803378 0.120435 0  0.120779 0.12078 0  0.161485 0.120859 0  0.199996 0.117814 0  0.238503 0.120866 0  0.279195 0.120798 0  0.319616 0.120473 0  0.359799 0.120256 0  0.39988 0.120136 0  0.439921 0.120073 0  0.479944 0.120039 0  0.519958 0.120022 0  0.5599690000000001 0.120012 0  0.599976 0.120007 0  0.639981 0.120004 0  0.679985 0.120002 0  0.719987 0.120002 0  0.7599900000000001 0.120001 0  0.799991 0.12 0  0.839993 0.12 0  0.879995 0.12 0  0.919996 0.12 0  0.959998 0.119999 0  1 0.119999 0  1.04 0.119999 0  1.08 0.119999 0  1.12 0.12 0  1.16 0.12 0  1.2 0.12 0  1.24 0.12 0  1.28 0.12 0  1.32 0.12 0  1.36 0.12 0  1.4 0.12 0  1.44 0.12 0  1.48 0.12 0  1.52 0.12 0  1.56 0.12 0  1.6 0.12 0  1.64 0.12 0  1.68 0.12 0  1.72 0.12 0  1.76 0.12 0  1.8 0.12 0  1.84 0.12 0  1.88 0.12 0  1.92 0.12 0  1.96 0.12 0  2 0.12 0  2.04 0.12 0  2.08 0.12 0  2.12 0.12 0  2.16 0.12 0  2.2 0.12 0  2.24 0.12 0  2.28 0.12 0  2.32 0.12 0  2.36 0.12 0  2.4 0.12 0  0.0400582 0.160177 0  0 0.16 0  0.0801954 0.160525 0  0.120857 0.161488 0  0.164645 0.164645 0  0.2 0.15 0  0.235355 0.164645 0  0.279119 0.161498 0  0.319759 0.16055 0  0.359874 0.160228 0  0.399906 0.160104 0  0.439925 0.160051 0  0.479941 0.160027 0  0.519954 0.160014 0  0.559964 0.160008 0  0.5999719999999999 0.160005 0  0.639978 0.160003 0  0.679982 0.160002 0  0.719985 0.160001 0  0.759988 0.160001 0  0.79999 0.16 0  0.839992 0.16 0  0.8799940000000001 0.16 0  0.919996 0.159999 0  0.959998 0.159999 0  1 0.159999 0  1.04 0.159999 0  1.08 0.159999 0  1.12 0.16 0  1.16 0.16 0  1.2 0.16 0  1.24 0.16 0  1.28 0.16 0  1.32 0.16 0  1.36 0.16 0  1.4 0.16 0  1.44 0.16 0  1.48 0.16 0  1.52 0.16 0  1.56 0.16 0  1.6 0.16 0  1.64 0.16 0  1.68 0.16 0  1.72 0.16 0  1.76 0.16 0  1.8 0.16 0  1.84 0.16 0  1.88 0.16 0  1.92 0.16 0  1.96 0.16 0  2 0.16 0  2.04 0.16 0  2.08 0.16 0  2.12 0.16 0  2.16 0.16 0  2.2 0.16 0  2.24 0.16 0  2.28 0.16 0  2.32 0.16 0  2.36 0.16 0  2.4 0.16 0  0.0399111 0.2 0  0 0.2 0  0.0795281 0.2 0  0.117811 0.2 0  0.15 0.2 0  0.282167 0.2 0  0.25 0.2 0  0.320429 0.2 0  0.36003 0.200001 0  0.399944 0.200001 0  0.439934 0.200001 0  0.479942 0.200001 0  0.519953 0.200001 0  0.559963 0.200001 0  0.59997 0.200001 0  0.639976 0.200001 0  0.6799809999999999 0.200001 0  0.719984 0.200001 0  0.759987 0.200001 0  0.799989 0.2 0  0.839991 0.2 0  0.879993 0.2 0  0.919996 0.199999 0  0.959998 0.199999 0  1 0.199999 0  1.04 0.199999 0  1.08 0.199999 0  1.12 0.2 0  1.16 0.2 0  1.2 0.2 0  1.24 0.2 0  1.28 0.2 0  1.32 0.2 0  1.36 0.2 0  1.4 0.2 0  1.44 0.2 0  1.48 0.2 0  1.52 0.2 0  1.56 0.2 0  1.6 0.2 0  1.64 0.2 0  1.68 0.2 0  1.72 0.2 0  1.76 0.2 0  1.8 0.2 0  1.84 0.2 0  1.88 0.2 0  1.92 0.2 0  1.96 0.2 0  2 0.2 0  2.04 0.2 0  2.08 0.2 0  2.12 0.2 0  2.16 0.2 0  2.2 0.2 0  2.24 0.2 0  2.28 0.2 0  2.32 0.2 0  2.36 0.2 0  2.4 0.2 0  0.0400582 0.239823 0  0 0.24 0  0.0801953 0.239475 0  0.120857 0.238513 0  0.164645 0.235355 0  0.279119 0.238502 0  0.235355 0.235355 0  0.319759 0.239451 0  0.359873 0.239774 0  0.399905 0.239898 0  0.439925 0.239951 0  0.479941 0.239976 0  0.519954 0.239988 0  0.559964 0.239994 0  0.5999719999999999 0.239997 0  0.639977 0.239999 0  0.679982 0.24 0  0.719985 0.24 0  0.759987 0.24 0  0.79999 0.24 0  0.839992 0.24 0  0.8799940000000001 0.24 0  0.919996 0.239999 0  0.959998 0.239999 0  1 0.239999 0  1.04 0.239999 0  1.08 0.239999 0  1.12 0.24 0  1.16 0.24 0  1.2 0.24 0  1.24 0.24 0  1.28 0.24 0  1.32 0.24 0  1.36 0.24 0  1.4 0.24 0  1.44 0.24 0  1.48 0.24 0  1.52 0.24 0  1.56 0.24 0  1.6 0.24 0  1.64 0.24 0  1.68 0.24 0  1.72 0.24 0  1.76 0.24 0  1.8 0.24 0  1.84 0.24 0  1.88 0.24 0  1.92 0.24 0  1.96 0.24 0  2 0.24 0  2.04 0.24 0  2.08 0.24 0  2.12 0.24 0  2.16 0.24 0  2.2 0.24 0  2.24 0.24 0  2.28 0.24 0  2.32 0.24 0  2.36 0.24 0  2.4 0.24 0  0.0401261 0.279816 0  0 0.28 0  0.0803376 0.279565 0  0.120778 0.27922 0  0.161485 0.279141 0  0.2 0.25 0  0.199996 0.282186 0  0.238503 0.279135 0  0.279195 0.279202 0  0.319616 0.279528 0  0.359799 0.279745 0  0.39988 0.279865 0  0.43992 0.279929 0  0.479944 0.279962 0  0.519958 0.27998 0  0.559968 0.27999 0  0.599976 0.279995 0  0.639981 0.279998 0  0.679984 0.279999 0  0.719987 0.28 0  0.759989 0.28 0  0.799991 0.28 0  0.839993 0.28 0  0.879995 0.28 0  0.919997 0.279999 0  0.959998 0.279999 0  1 0.279999 0  1.04 0.279999 0  1.08 0.28 0  1.12 0.28 0  1.16 0.28 0  1.2 0.28 0  1.24 0.28 0  1.28 0.28 0  1.32 0.28 0  1.36 0.28 0  1.4 0.28 0  1.44 0.28 0  1.48 0.28 0  1.52 0.28 0  1.56 0.28 0  1.6 0.28 0  1.64 0.28 0  1.68 0.28 0  1.72 0.28 0  1.76 0.28 0  1.8 0.28 0  1.84 0.28 0  1.88 0.28 0  1.92 0.28 0  1.96 0.28 0  2 0.28 0  2.04 0.28 0  2.08 0.28 0  2.12 0.28 0  2.16 0.28 0  2.2 0.28 0  2.24 0.28 0  2.28 0.28 0  2.32 0.28 0  2.36 0.28 0  2.4 0.28 0  0.0401086 0.319877 0  0 0.32 0  0.08025060000000001 0.319748 0  0.120433 0.319661 0  0.160522 0.319802 0  0.199995 0.320467 0  0.239464 0.319795 0  0.279543 0.319643 0  0.31971 0.319714 0  0.359828 0.319813 0  0.399895 0.319889 0  0.439933 0.319937 0  0.479955 0.319965 0  0.519968 0.319981 0  0.559976 0.31999 0  0.599982 0.319995 0  0.6399860000000001 0.319998 0  0.679989 0.319999 0  0.719991 0.32 0  0.759992 0.32 0  0.799994 0.32 0  0.839995 0.32 0  0.879996 0.32 0  0.919998 0.32 0  0.959999 0.32 0  1 0.32 0  1.04 0.32 0  1.08 0.32 0  1.12 0.32 0  1.16 0.32 0  1.2 0.32 0  1.24 0.32 0  1.28 0.32 0  1.32 0.32 0  1.36 0.32 0  1.4 0.32 0  1.44 0.32 0  1.48 0.32 0  1.52 0.32 0  1.56 0.32 0  1.6 0.32 0  1.64 0.32 0  1.68 0.32 0  1.72 0.32 0  1.76 0.32 0  1.8 0.32 0  1.84 0.32 0  1.88 0.32 0  1.92 0.32 0  1.96 0.32 0  2 0.32 0  2.04 0.32 0  2.08 0.32 0  2.12 0.32 0  2.16 0.32 0  2.2 0.32 0  2.24 0.32 0  2.28 0.32 0  2.32 0.32 0  2.36 0.32 0  2.4 0.32 0  0.0400579 0.359942 0  0 0.36 0  0.0801229 0.359891 0  0.120183 0.359873 0  0.160175 0.35994 0  0.199997 0.360086 0  0.239816 0.359936 0  0.279804 0.359862 0  0.319855 0.359871 0  0.359906 0.359906 0  0.399941 0.35994 0  0.439962 0.359964 0  0.479975 0.359979 0  0.5199820000000001 0.359989 0  0.559987 0.359994 0  0.59999 0.359997 0  0.639993 0.359998 0  0.679994 0.359999 0  0.7199950000000001 0.36 0  0.759996 0.36 0  0.799997 0.36 0  0.839997 0.36 0  0.8799979999999999 0.36 0  0
[...]
<PointData  Scalars="f_10391-2"> 
<DataArray  type="Float64"  Name="f_10391-2"  format="ascii">1.6692620451759890e-04  1.6666630054769664e-04  1.7964470497248408e-04  1.8019269614187217e-04  1.5727805685063716e-04  1.7129383586484610e-04  1.3419148214509759e-04  1.4629038404501439e-04  1.0216698347513714e-04  1.0989130405311424e-04  7.0737469498161578e-05  7.4739738029887791e-05  4.5575904042121616e-05  4.7364562026505755e-05  2.7901992852914551e-05  2.8645610102456847e-05  1.6407867581092878e-05  1.6714059972863565e-05  9.3004307848042355e-06  9.4257393936555640e-06  5.0815283044487053e-06  5.1296746904222574e-06  2.6732875706211211e-06  2.6885284064190815e-06  1.3524988743453232e-06  1.3547480302342792e-06  6.5741556936947036e-07  6.5555015004514932e-07  3.0678006846773533e-07  3.0436513380660861e-07  1.3735605570693454e-07  1.3549583102732087e-07  5.8979116202290247e-08  5.7803374150528288e-08  2.4277075886359069e-08  2.3619842042857103e-08  9.5757885687119707e-09  9.2397356669935154e-09  3.6179826047137230e-09  3.4583672155429850e-09  1.3088908769937194e-09  1.2378516716110561e-09  4.5321874344643570e-10  4.2344811726536718e-10  1.5014102622692203e-10  1.3834151159573262e-10  4.7564753153545071e-11  4.3133652156733561e-11  1.4403200062853969e-11  1.2824827663498533e-11  4.1668606883540336e-12  3.6326622847432846e-12  1.1510627901049514e-12  9.7926214219484919e-13  3.0344419615950595e-13  2.5090925801137834e-13  7.6290903305998316e-14  6.1013282808536446e-14  1.8279831910432967e-14  1.4054513454825390e-14  4.1708427208147427e-15  3.0596143067986700e-15  9.0534242042970870e-16  6.2752000801341334e-16  1.8674169634854526e-16  1.2073747854622877e-16  3.6550333217199861e-17  2.1658224617794694e-17  6.7760218411278549e-18  3.5876651325874730e-18  1.1870139839781790e-18  5.3997397650293159e-19  1.9585042621796397e-19  7.1569639511020944e-20  3.0296339190544896e-20  7.7487281540768033e-21  4.3643003049303460e-21  5.1145276431654525e-22  5.7930363143128279e-22  -3.8238658178001022e-23  6.9597296744844335e-23  -2.2682033451737323e-23  7.3127269274620654e-24  -5.4205599149897019e-24  6.1934121808371099e-25  -9.7722352259365082e-25  3.0732505757139740e-26  -1.4574240606728823e-25  -2.0461339127173938e-27  -1.8088698034059355e-26  -8.1388176626260252e-28  -1.7545662850892362e-27  -1.2766436595306867e-28  -9.6819910598969398e-29  -1.2141302531722339e-29  7.8414648422570330e-30  -2.0688480503383536e-31  3.4086909315392783e-30  1.9903625109280814e-31  6.2035091300295471e-31  5.1229553399049823e-32  7.6638886623875025e-32  8.0920657444118017e-33  5.5928346857484394e-33  8.7963750826077736e-34  -2.2234511533393927e-34  4.4621721967588186e-35  -1.6605760876713473e-34  -7.2360923191875466e-36  -3.4977260854214942e-35  -2.6172899270213005e-36  -4.9466566097889884e-36  -4.7301386101311328e-37  -4.6532127368787715e-37  -5.8911298271514648e-38  -1.0031981786758730e-38  -4.3618400364583445e-39  7.0636225023286358e-39  1.5698600341267278e-40  1.9008873170862477e-39  2.7243357462337969e-40  6.0320165718026668e-40  2.1144944513709543e-04  2.0994416912703456e-04  2.0713334207871575e-04  1.7898423645254445e-04  1.3152068965615306e-04  8.5756749378088903e-05  5.2090266496758978e-05  3.0653096574157572e-05  1.7651786499339923e-05  9.8948740187677019e-06  5.3657537980917377e-06  2.8034930155498134e-06  1.4080154470754153e-06  6.7889946748201040e-07  3.1400899008012289e-07  1.3923430063783825e-07  5.9156142004963622e-08  2.4070138482986760e-08  9.3746862621501248e-09  3.4929965101055435e-09  1.2442888153327978e-09  4.2352063297153925e-10  1.3764086648440728e-10  4.2679165989854454e-11  1.2615718086950084e-11  3.5520300295168894e-12  9.5167347340017626e-13  2.4235763082918099e-13  5.8594091074233876e-14  1.3430086821329203e-14  2.9137532051226831e-15  5.9731711870563815e-16  1.1546976153066453e-16  2.1003710385906872e-17  3.5869782535745865e-18  5.7410281866728015e-19  8.6094902285166686e-20  1.2145288334674050e-20  1.6338081102903782e-21  2.1642640182613893e-22  2.9831972878051138e-23  4.5219682905494851e-24  7.5783506489348203e-25  1.3310608238126700e-25  2.2944703141126257e-26  3.7015722638856454e-27  5.4074511579419662e-28  6.9086198439984773e-29  7.2245119054839799e-30  4.9526790063387101e-31  -1.3318552147216938e-32  -1.2195596342761798e-32  -2.6015409868633565e-33  -3.7576206331066154e-34  -3.7470660123277022e-35  -1.3638611876443647e-36  4.3560603996351571e-37  1.3223253675151563e-37  2.2760499965260953e-38  2.7663605049412853e-39  3.7662980738691869e-40  2.4545484907752578e-04  2.4269969530193422e-04  2.4471202729808920e-04  2.1684230205907583e-04  1.6007849970060665e-04  9.9005194196780840e-05  5.6453096880704356e-05  3.2327167148126358e-05  1.8556759684243192e-05  1.0420586128419292e-05  5.6546980666203684e-06  2.9509634890104992e-06  1.4784186666370480e-06  7.1055695230179915e-07  3.2746232261856879e-07  1.4465712154217762e-07  6.1226703699546357e-08  2.4817205415992133e-08  9.6285321851873983e-09  3.5733925337516666e-09  1.2678772756309202e-09  4.2975991528718450e-10  1.3906560906958236e-10  4.2927280225206340e-11  1.2629143715213558e-11  3.5379985729290040e-12  9.4292315525726713e-13  2.3879254321715063e-13  5.7392648389621782e-14  1.3073059067040750e-14  2.8177364718690672e-15  5.7363818965214638e-16  1.1007104972674742e-16  1.9857506893826082e-17  3.3581564007603190e-18  5.3042742658624397e-19  7.7896260443678968e-20  1.0571029771322536e-20  1.3134356530565283e-21  1.4684523167788625e-22  1.4137823821930720e-23  9.8940140460165626e-25  -1.0679986444428334e-26  -2.5359257085035335e-26  -7.6917001900569266e-27  -1.8150803606643522e-27  -3.7904533557615027e-28  -7.1788962985974423e-29  -1.2330830410786890e-29  -1.9015653880627860e-30  -2.5754652656052104e-31  -2.9125861061018200e-32  -2.3508365659623331e-33  -2.0215909873126432e-35  4.0482876843737145e-35  1.0192277931398165e-35  1.6578001954895279e-36  1.9522825848274445e-37  1.3439759088071368e-38  -7.8734914781285996e-40  -9.1808503541817805e-40  2.6866130985313643e-04  2.6638847977997893e-04  2.6796899047340972e-04  2.4589088729936941e-04  1.9594379339129222e-04  1.0575381396055646e-04  5.1923957905084467e-05  3.1346855829167233e-05  1.8732513194731888e-05  1.0731365078440973e-05  5.8685949780729967e-06  3.0676237931965115e-06  1.5349943093515349e-06  7.3590753394989983e-07  3.3812906086200595e-07  1.4888301272585325e-07  6.2803411006794864e-08  2.5369291842743100e-08  9.8079413693272350e-09  3.6267547023858610e-09  1.2818903849252261e-09  4.3276392004649924e-10  1.3943796388357779e-10  4.2842672126845299e-11  1.2541272234691366e-11  3.4941846286679892e-12  9.2565411067144269e-13  2.3285925408917342e-13  5.5550505897901208e-14  1.2547472318866213e-14  2.6786269617187769e-15  5.3929165407922423e-16  1.0213104692840035e-16  1.8134154190676384e-17  3.0060995843253881e-18  4.6256618903237087e-19  6.5521197528398691e-20  8.4311592715814019e-21  9.6247170823023437e-22  9.2565352837000241e-23  6.3900817482442579e-24  3.2838014269072356e-26  -8.9955171166344202e-26  -2.0436227982873477e-26  -3.0326034069417557e-27  -2.9144610091831690e-28  5.8456775306985154e-30  1.2373661442330038e-29  4.1779117702409603e-30  1.0398790215194216e-30  2.1921015885612822e-31  4.0636112216082177e-32  6.6757549615312742e-33  9.6169821391210149e-34  1.1709046365032190e-34  1.0759165034604362e-35  3.7029783301398880e-37  -1.2438305323783575e-37  -3.8426403078557066e-38  -7.0602864870295992e-39  -1.8353167632870796e-39  2.7808670789475880e-04  2.7590427469445072e-04  2.7663696093225193e-04  2.5957215755775218e-04  2.3674385587396055e-04  2.8432927914556717e-05  3.7756567930333203e-05  1.8384499908334315e-05  1.0794716190570437e-05  5.9444276367947194e-06  3.1104773643833304e-06  1.5548164092538497e-06  7.4404851844217123e-07  3.4112627461242332e-07  1.4985219060472759e-07  6.3053477367973094e-08  2.5401246006775317e-08  9.7918462913041214e-09  3.6093969356121344e-09  1.2713673053146885e-09  4.2758540275226823e-10  1.3719149957526554e-10  4.1954240853619767e-11  1.2217086959078607e-11  3.3839380595562309e-12  8.9053700259581983e-13  2.2235226300627018e-13  5.2592732532010754e-14  1.1763488815949777e-14  2.4829164472980666e-15  4.9328972034476212e-16  9.1957145396964634e-17  1.6019546889442420e-17  2.5938101158819569e-18  3.8737465676375024e-19  5.2752825641628769e-20  6.4283382275091507e-21  6.7665491303007150e-22  5.6663470788638134e-23  2.7618721043020130e-24  -1.5838593993206827e-25  -5.7532899594680547e-26  -6.4466050892341372e-27  1.4977202202973220e-28  2.4823451237321406e-28  7.0437207866488406e-29  1.4077104381728217e-29  2.2123796177860386e-30  2.5203253964541707e-31  7.5905320672513381e-33  -6.3898436083052886e-33  -2.4789350376631136e-33  -6.3010237135121622e-34  -1.3059858749468094e-34  -2.3271184920304755e-35  -3.5964677700757496e-36  -4.7170084241953339e-37  -4.8433330205880549e-38  -2.6555571836632501e-39  6.7353840151774013e-40  2.7118773435733773e-04  2.6790510751135190e-04  2.6870177138335220e-04  2.4173863699602493e-04  1.9185720322341407e-04  3.1456216850685356e-05  5.2449242749344415e-05  1.8861422020124607e-05  1.0791511901691861e-05  5.8842385058879461e-06  3.0659711535981054e-06  1.5293186830562074e-06  7.3084456947281723e-07  3.3467717862574724e-07  1.4682908761961688e-07  6.1690580004086264e-08  2.4807671423526877e-08  9.5425763754220358e-09  3.5086898982461188e-09  1.2321742896258118e-09  4.1296079726763155e-10  1.3196454907786844e-10  4.0169404092735329e-11  1.1634795467261164e-11  3.2028410420387270e-12  8.3692058346288794e-13  2.0726461597226440e-13  4.8562811400875442e-14  1.0743445411982766e-14  2.2386438502091425e-15  4.3804988584122037e-16  8.0186683831122963e-17  1.3662780833230901e-17  2.1519453708863277e-18  3.1017562271024836e-19  4.0272811336953275e-20  4.5822188820559325e-21  4.3155802217940394e-22  2.8565765640118570e-23  2.3951574920560569e-25  -2.7184913717084089e-25  -4.1989521141605641e-26  -1.6340178844481518e-27  7.2385257826613822e-28  2.2244306667362823e-28  3.7377851816772625e-29  3.6095209680419108e-30  -1.4139830117255573e-31  -1.6521774187680036e-31  -4.8097595557634888e-32  -9.9935531047290056e-33  -1.6298135368385889e-33  -1.9424550657700784e-34  -8.2280654838642653e-36  3.9555080185290624e-36  1.6012751749905732e-36  3.9994838084873929e-37  7.9784310033174720e-38  1.3681665323931761e-38  3.8088939168820604e-39  2.4573567231682300e-04  2.4171233247361631e-04  2.4453070857649183e-04  2.1497371966841227e-04  1.5907768682554360e-04  1.0778112749043390e-04  9.7642813621266509e-05  5.7038178444964349e-05  3.2654869657436867e-05  1.8729871921548339e-05  1.0484391005642086e-05  5.6638874304233238e-06  2.9408192214492680e-06  1.4652833804716824e-06  7.0011780982305513e-07  3.2059683308953842e-07  1.4062046001210341e-07  5.9047991605290519e-08  2.3722038028752359e-08  9.1111861643930786e-09  3.3431776284511316e-09  1.1709742521610005e-09  3.9116325402566266e-10  1.2450174023120249e-10  3.7718000488080895e-11  1.0863917730443772e-11  2.9709695582602369e-12  7.7036163524929365e-13  1.8906432482942437e-13  4.3831395879616654e-14  9.5764357480954435e-15  1.9661167235388690e-15  3.7794041443861705e-16  6.7700174334703593e-17  1.1228360977967492e-17  1.7084735644340981e-18  2.3514890814415052e-19  2.8587839708774029e-20  2.9297574918217742e-21  2.2435963955424244e-22  6.6121328389257138e-24  -1.4889386842612336e-24  -3.1788503517859642e-25  -2.7530417211072648e-26  1.4073859372570987e-27  9.4703122756747096e-28  1.8180403862260574e-28  1.9088335783281172e-29  -1.5007254328216203e-31  -5.8355298212615143e-31  -1.5517540551994875e-31  -2.5970019117030064e-32  -2.6253569356896562e-33  7.5156300512334308e-35  1.1550894813391334e-34  3.4756626829272397e-35  7.3081057794360775e-36  1.1880848098191433e-36  1.3847075489646902e-37  5.0557222739188542e-39  -3.0739365944098745e-39  -2.2399103806858094e-39  2.0751720135083292e-04  2.0549956675256151e-04  2.0477901845959706e-04  1.7968802265275744e-04  1.3336487199529587e-04  8.6244161588364173e-05  5.2576046848897408e-05  3.0868965365929905e-05  1.7748130490466330e-05  9.9155316667286979e-06  5.3502169639152909e-06  2.7778970886416835e-06  1.3850312550881893e-06  6.6230891918500306e-07  3.0348052840572028e-07  1.3314918217223713e-07  5.5897071392186571e-08  2.2437322917114267e-08  8.6052795201340258e-09  3.1508782776031192e-09  1.1004600400344607e-09  3.6627680201938188e-10  1.1605939421128116e-10  3.4968347558048307e-11  1.0006043269139964e-11  2.7151642241360522e-12  6.9754310833140791e-13  1.6932216844982307e-13  3.8744616537472861e-14  8.3333568837597734e-15  1.6787165861085602e-15  3.1524918467936314e-16  5.4840551298777483e-17  8.7579591584544956e-18  1.2664130815378509e-18  1.6201713294801008e-19  1.7527661879274247e-20  1.4284625701388047e-21  4.7618376224662061e-23  -1.0057980506072527e-23  -2.4263989215136817e-24  -2.6345410377665496e-25  -2.5754380709713895e-27  5.3632679233632931e-27  1.2733010602556246e-27  1.6881331179252541e-28  9.4249952476102988e-30  -1.8241466071565518e-30  -6.7004815574588131e-31  -1.1704592771524803e-31  -1.1296807210644462e-32  4.2867457638319674e-34  4.6708408489042143e-34  1.2052061289266243e-34  2.0275756609906240e-35  2.0824347199239781e-36  -5.2958508448324454e-38  -8.9623589443798303e-38  -2.6905992879320573e-38  -5.6773791891852433e-39  -1.7399240800334160e-39  1.7507589558066175e-04  1.7603186427777302e-04  1.6851168738329542e-04  1.4741722705444339e-04  1.1233211228791368e-04  7.5969811363254812e-05  4.7897035665826953e-05  2.8811828785888082e-05  1.6733394534247487e-05  9.3855101289398132e-06  5.0730541369230993e-06  2.6367820479558022e-06  1.3156063551510832e-06  6.2933955024900318e-07  2.8834054013236743e-07  1.2642418618374091e-07  5.3003611672009591e-08  2.1233216409810638e-08  8.1206270371462881e-09  2.9624498350800889e-09  1.0298788589158084e-09  3.4084424904154204e-10  1.0725663161132717e-10  3.2049938130995926e-11  9.0805092102310714e-12  2.4351484306928081e-12  6.1682430275135281e-13  1.4720709923659823e-13  3.2998215567226538e-14  6.9206332483839546e-15  1.3509954308068861e-15  2.4373948396121192e-16  4.0220704228984145e-17  5.9716090015763445e-18  7.7480609741016541e-19  8.2539131843861171e-20  5.9448264657990094e-21  -4.8903478291696525e-23  -1.0694075853751601e-22  -2.0792590600678439e-23  -2.2288179445744478e-24  -3.8249389130110704e-26  4.2098353837929265e-26  1.0734048196088324e-26  1.5569569427446328e-27  1.2039405767408440e-28  -7.3568178769108367e-30  -4.5012940397539413e-30  -8.8950388787684036e-31  -1.0384034201787453e-31  -3.0754928342775756e-33  1.9072784140981595e-33  5.6211748484784852e-34  9.1874979391180758e-35  7.9628872882640053e-36  -6.4103246729807362e-37  -4.4046120852712920e-37  -1.0860130857336081e-37  -1.7828438488811501e-38  -1.7267826177024441e-39  1.4540767881279806e-40  1.6322064302506437e-04  1.6640699782522234e-04  1.5487092909621187e-04  1.3496361841029751e-04  1.0410253140664638e-04  7.1728649709847515e-05  4.5803530758730201e-05  2.7790888191477452e-05  1.6204487029106896e-05  9.1002460100350218e-06  4.9176719016018567e-06  2.5530017985234841e-06  1.2713604499748026e-06  6.0654954673969406e-07  2.7694087585145868e-07  1.2089952964578206e-07  5.0418588387091447e-08  2.0067380845555165e-08  7.6155529720059134e-09  2.7527424407449447e-09  9.4660062704386032e-10  3.0925950768509645e-10  9.5842395028169011e-11  2.8124785812324564e-11  7.7979890313701209e-12  2.0375079377732215e-12  5.0004900582593635e-13  1.1478592635691624e-13  2.4505792314687948e-14  4.8269748376775086e-15  8.6663943104774644e-16  1.3898411785123092e-16  1.9144994874904880e-17  2.0543254036384551e-18  1.0898139765237376e-19  -1.9277200546200780e-20  -7.6558753112299098e-21  -1.5366495224827351e-21  -2.1492071756542935e-22  -1.8772010334589914e-23  2.1984980248519549e-25  4.7057217097008788e-25  1.0711838626718158e-25  1.4814902915900492e-26  1.0841217976739936e-27  -7.9975957629903465e-29  -4.3592109199966958e-29  -8.4705943559769205e-30  -9.9886143019727416e-31  -3.9313657648501404e-32  1.4388182802410913e-32  4.4418768998727341e-33  7.2871959626596337e-34  6.6536572112742180e-35  -2.7232820232554731e-36  -2.5907871105754384e-36  -6.1738210518359556e-37  -9.1535015829025811e-38  -6.3755925669198172e-39  1.2465113953613140e-39  1.0505303450914465e-39  </DataArray> 
</PointData> 
</Piece>
</UnstructuredGrid>
</VTKFile>