<?xml version="1.0"?>
<VTKFile type="UnstructuredGrid"  version="0.1"  >
<UnstructuredGrid>
<Piece  NumberOfPoints="670" NumberOfCells="1192">
<Points>
<DataArray  type="Float64"  NumberOfComponents="3"  format="ascii">0 0 0  0.04 -1.31357e-10 0  0.0400579 0.0400582 0  0 0.04 0  0.08 -2.62713e-10 0  0.080123 0.0401093 0  0.12 -3.9407e-10 0  0.120183 0.040127 0  0.16 -5.25427e-10 0  0.160176 0.0400597 0  0.2 -6.56784e-10 0  0.199997 0.0399142 0  0.24 -7.8814e-10 0  0.239816 0.0400642 0  0.28 -9.19497e-10 0  0.279804 0.0401377 0  0.32 -1.05085e-09 0  0.319855 0.0401297 0  0.36 -1.18221e-09 0  0.359906 0.0400945 0  0.4 -1.31357e-09 0  0.399941 0.0400609 0  0.44 -1.44492e-09 0  0.439962 0.0400367 0  0.48 -1.57628e-09 0  0.479975 0.0400214 0  0.52 -1.70764e-09 0  0.519983 0.0400122 0  0.5600000000000001 -1.83899e-09 0  0.559987 0.0400069 0  0.6 -1.97035e-09 0  0.59999 0.040004 0  0.64 -2.10171e-09 0  0.639993 0.0400023 0  0.68 -2.23306e-09 0  0.679994 0.0400013 0  0.72 -2.36442e-09 0  0.7199950000000001 0.0400008 0  0.76 -2.49578e-09 0  0.759996 0.0400005 0  0.8 -2.62713e-09 0  0.799997 0.0400002 0  0.84 -2.75849e-09 0  0.839997 0.0400001 0  0.88 -2.88985e-09 0  0.8799979999999999 0.04 0  0.92 -3.0212e-09 0  0.919999 0.0399999 0  0.96 -3.15256e-09 0  0.959999 0.0399998 0  1 -3.28392e-09 0  1 0.0399998 0  1.04 -3.41527e-09 0  1.04 0.0399998 0  1.08 -3.54663e-09 0  1.08 0.0399998 0  1.12 -3.67799e-09 0  1.12 0.0399998 0  1.16 -3.80934e-09 0  1.16 0.0399999 0  1.2 -3.9407e-09 0  1.2 0.04 0  1.24 -4.07206e-09 0  1.24 0.04 0  1.28 -4.20341e-09 0  1.28 0.0400001 0  1.32 -4.33477e-09 0  1.32 0.0400001 0  1.36 -4.46613e-09 0  1.36 0.04 0  1.4 -4.59748e-09 0  1.4 0.04 0  1.44 -4.72884e-09 0  1.44 0.04 0  1.48 -4.8602e-09 0  1.48 0.04 0  1.52 -4.99156e-09 0  1.52 0.04 0  1.56 -5.12291e-09 0  1.56 0.04 0  1.6 -5.25427e-09 0  1.6 0.0400001 0  1.64 -5.38563e-09 0  1.64 0.0400001 0  1.68 -5.51698e-09 0  1.68 0.04 0  1.72 -5.64834e-09 0  1.72 0.04 0  1.76 -5.7797e-09 0  1.76 0.04 0  1.8 -5.91105e-09 0  1.8 0.04 0  1.84 -6.04241e-09 0  1.84 0.04 0  1.88 -6.17377e-09 0  1.88 0.0400001 0  1.92 -6.30512e-09 0  1.92 0.0400001 0  1.96 -6.43648e-09 0  1.96 0.0400001 0  2 -6.56784e-09 0  2 0.0400001 0  2.04 -6.69919e-09 0  2.04 0.0400001 0  2.08 -6.83055e-09 0  2.08 0.04 0  2.12 -6.96191e-09 0  2.12 0.04 0  2.16 -7.09326e-09 0  2.16 0.0400001 0  2.2 -7.22462e-09 0  2.2 0.04 0  2.24 -7.35598e-09 0  2.24 0.04 0  2.28 -7.48733e-09 0  2.28 0.0399999 0  2.32 -7.618690000000001e-09 0  2.32 0.04 0  2.36 -7.750049999999999e-09 0  2.36 0.04 0  2.4 -7.8814e-09 0  2.4 0.04 0  0.0401088 0.0801235 0  0 0.08 0  0.0802509 0.0802518 0  0.120434 0.0803392 0  0.160522 0.0801977 0  0.199995 0.0795328 0  0.239464 0.0802049 0  0.279544 0.08035689999999999 0  0.319711 0.0802867 0  0.359828 0.08018740000000001 0  0.399896 0.0801123 0  0.439933 0.0800646 0  0.479955 0.0800365 0  0.519968 0.08002049999999999 0  0.559976 0.0800116 0  0.599982 0.0800066 0  0.6399860000000001 0.0800039 0  0.679989 0.0800023 0  0.719991 0.0800014 0  0.759992 0.0800008 0  0.799994 0.0800004 0  0.839995 0.08000019999999999 0  0.879996 0.0799999 0  0.919997 0.07999970000000001 0  0.959999 0.0799996 0  1 0.0799995 0  1.04 0.0799995 0  1.08 0.0799996 0  1.12 0.07999970000000001 0  1.16 0.0799998 0  1.2 0.08 0  1.24 0.0800001 0  1.28 0.0800001 0  1.32 0.0800001 0  1.36 0.08 0  1.4 0.0799999 0  1.44 0.0799999 0  1.48 0.0799999 0  1.52 0.0799999 0  1.56 0.08 0  1.6 0.0800001 0  1.64 0.0800001 0  1.68 0.08 0  1.72 0.0799999 0  1.76 0.0799999 0  1.8 0.0799999 0  1.84 0.0799999 0  1.88 0.08 0  1.92 0.0800001 0  1.96 0.0800001 0  2 0.0800001 0  2.04 0.08 0  2.08 0.0799999 0  2.12 0.0799999 0  2.16 0.08 0  2.2 0.08 0  2.24 0.0799999 0  2.28 0.0799998 0  2.32 0.0799999 0  2.36 0.0799999 0  2.4 0.08 0  0.0401262 0.120184 0  0 0.12 0  0.0803378 0.120435 0  0.120779 0.12078 0  0.161485 0.120859 0  0.199996 0.117814 0  0.238503 0.120866 0  0.279195 0.120798 0  0.319616 0.120473 0  0.359799 0.120256 0  0.39988 0.120136 0  0.439921 0.120073 0  0.479944 0.120039 0  0.519958 0.120022 0  0.5599690000000001 0.120012 0  0.599976 0.120007 0  0.639981 0.120004 0  0.679985 0.120002 0  0.719987 0.120002 0  0.7599900000000001 0.120001 0  0.799991 0.12 0  0.839993 0.12 0  0.879995 0.12 0  0.919996 0.12 0  0.959998 0.119999 0  1 0.119999 0  1.04 0.119999 0  1.08 0.119999 0  1.12 0.12 0  1.16 0.12 0  1.2 0.12 0  1.24 0.12 0  1.28 0.12 0  1.32 0.12 0  1.36 0.12 0  1.4 0.12 0  1.44 0.12 0  1.48 0.12 0  1.52 0.12 0  1.56 0.12 0  1.6 0.12 0  1.64 0.12 0  1.68 0.12 0  1.72 0.12 0  1.76 0.12 0  1.8 0.12 0  1.84 0.12 0  1.88 0.12 0  1.92 0.12 0  1.96 0.12 0  2 0.12 0  2.04 0.12 0  2.08 0.12 0  2.12 0.12 0  2.16 0.12 0  2.2 0.12 0  2.24 0.12 0  2.28 0.12 0  2.32 0.12 0  2.36 0.12 0  2.4 0.12 0  0.0400582 0.160177 0  0 0.16 0  0.0801954 0.160525 0  0.120857 0.161488 0  0.164645 0.164645 0  0.2 0.15 0  0.235355 0.164645 0  0.279119 0.161498 0  0.319759 0.16055 0  0.359874 0.160228 0  0.399906 0.160104 0  0.439925 0.160051 0  0.479941 0.160027 0  0.519954 0.160014 0  0.559964 0.160008 0  0.5999719999999999 0.160005 0  0.639978 0.160003 0  0.679982 0.160002 0  0.719985 0.160001 0  0.759988 0.160001 0  0.79999 0.16 0  0.839992 0.16 0  0.8799940000000001 0.16 0  0.919996 0.159999 0  0.959998 0.159999 0  1 0.159999 0  1.04 0.159999 0  1.08 0.159999 0  1.12 0.16 0  1.16 0.16 0  1.2 0.16 0  1.24 0.16 0  1.28 0.16 0  1.32 0.16 0  1.36 0.16 0  1.4 0.16 0  1.44 0.16 0  1.48 0.16 0  1.52 0.16 0  1.56 0.16 0  1.6 0.16 0  1.64 0.16 0  1.68 0.16 0  1.72 0.16 0  1.76 0.16 0  1.8 0.16 0  1.84 0.16 0  1.88 0.16 0  1.92 0.16 0  1.96 0.16 0  2 0.16 0  2.04 0.16 0  2.08 0.16 0  2.12 0.16 0  2.16 0.16 0  2.2 0.16 0  2.24 0.16 0  2.28 0.16 0  2.32 0.16 0  2.36 0.16 0  2.4 0.16 0  0.0399111 0.2 0  0 0.2 0  0.0795281 0.2 0  0.117811 0.2 0  0.15 0.2 0  0.282167 0.2 0  0.25 0.2 0  0.320429 0.2 0  0.36003 0.200001 0  0.399944 0.200001 0  0.439934 0.200001 0  0.479942 0.200001 0  0.519953 0.200001 0  0.559963 0.200001 0  0.59997 0.200001 0  0.639976 0.200001 0  0.6799809999999999 0.200001 0  0.719984 0.200001 0  0.759987 0.200001 0  0.799989 0.2 0  0.839991 0.2 0  0.879993 0.2 0  0.919996 0.199999 0  0.959998 0.199999 0  1 0.199999 0  1.04 0.199999 0  1.08 0.199999 0  1.12 0.2 0  1.16 0.2 0  1.2 0.2 0  1.24 0.2 0  1.28 0.2 0  1.32 0.2 0  1.36 0.2 0  1.4 0.2 0  1.44 0.2 0  1.48 0.2 0  1.52 0.2 0  1.56 0.2 0  1.6 0.2 0  1.64 0.2 0  1.68 0.2 0  1.72 0.2 0  1.76 0.2 0  1.8 0.2 0  1.84 0.2 0  1.88 0.2 0  1.92 0.2 0  1.96 0.2 0  2 0.2 0  2.04 0.2 0  2.08 0.2 0  2.12 0.2 0  2.16 0.2 0  2.2 0.2 0  2.24 0.2 0  2.28 0.2 0  2.32 0.2 0  2.36 0.2 0  2.4 0.2 0  0.0400582 0.239823 0  0 0.24 0  0.0801953 0.239475 0  0.120857 0.238513 0  0.164645 0.235355 0  0.279119 0.238502 0  0.235355 0.235355 0  0.319759 0.239451 0  0.359873 0.239774 0  0.399905 0.239898 0  0.439925 0.239951 0  0.479941 0.239976 0  0.519954 0.239988 0  0.559964 0.239994 0  0.5999719999999999 0.239997 0  0.639977 0.239999 0  0.679982 0.24 0  0.719985 0.24 0  0.759987 0.24 0  0.79999 0.24 0  0.839992 0.24 0  0.8799940000000001 0.24 0  0.919996 0.239999 0  0.959998 0.239999 0  1 0.239999 0  1.04 0.239999 0  1.08 0.239999 0  1.12 0.24 0  1.16 0.24 0  1.2 0.24 0  1.24 0.24 0  1.28 0.24 0  1.32 0.24 0  1.36 0.24 0  1.4 0.24 0  1.44 0.24 0  1.48 0.24 0  1.52 0.24 0  1.56 0.24 0  1.6 0.24 0  1.64 0.24 0  1.68 0.24 0  1.72 0.24 0  1.76 0.24 0  1.8 0.24 0  1.84 0.24 0  1.88 0.24 0  1.92 0.24 0  1.96 0.24 0  2 0.24 0  2.04 0.24 0  2.08 0.24 0  2.12 0.24 0  2.16 0.24 0  2.2 0.24 0  2.24 0.24 0  2.28 0.24 0  2.32 0.24 0  2.36 0.24 0  2.4 0.24 0  0.0401261 0.279816 0  0 0.28 0  0.0803376 0.279565 0  0.120778 0.27922 0  0.161485 0.279141 0  0.2 0.25 0  0.199996 0.282186 0  0.238503 0.279135 0  0.279195 0.279202 0  0.319616 0.279528 0  0.359799 0.279745 0  0.39988 0.279865 0  0.43992 0.279929 0  0.479944 0.279962 0  0.519958 0.27998 0  0.559968 0.27999 0  0.599976 0.279995 0  0.639981 0.279998 0  0.679984 0.279999 0  0.719987 0.28 0  0.759989 0.28 0  0.799991 0.28 0  0.839993 0.28 0  0.879995 0.28 0  0.919997 0.279999 0  0.959998 0.279999 0  1 0.279999 0  1.04 0.279999 0  1.08 0.28 0  1.12 0.28 0  1.16 0.28 0  1.2 0.28 0  1.24 0.28 0  1.28 0.28 0  1.32 0.28 0  1.36 0.28 0  1.4 0.28 0  1.44 0.28 0  1.48 0.28 0  1.52 0.28 0  1.56 0.28 0  1.6 0.28 0  1.64 0.28 0  1.68 0.28 0  1.72 0.28 0  1.76 0.28 0  1.8 0.28 0  1.84 0.28 0  1.88 0.28 0  1.92 0.28 0  1.96 0.28 0  2 0.28 0  2.04 0.28 0  2.08 0.28 0  2.12 0.28 0  2.16 0.28 0  2.2 0.28 0  2.24 0.28 0  2.28 0.28 0  2.32 0.28 0  2.36 0.28 0  2.4 0.28 0  0.0401086 0.319877 0  0 0.32 0  0.08025060000000001 0.319748 0  0.120433 0.319661 0  0.160522 0.319802 0  0.199995 0.320467 0  0.239464 0.319795 0  0.279543 0.319643 0  0.31971 0.319714 0  0.359828 0.319813 0  0.399895 0.319889 0  0.439933 0.319937 0  0.479955 0.319965 0  0.519968 0.319981 0  0.559976 0.31999 0  0.599982 0.319995 0  0.6399860000000001 0.319998 0  0.679989 0.319999 0  0.719991 0.32 0  0.759992 0.32 0  0.799994 0.32 0  0.839995 0.32 0  0.879996 0.32 0  0.919998 0.32 0  0.959999 0.32 0  1 0.32 0  1.04 0.32 0  1.08 0.32 0  1.12 0.32 0  1.16 0.32 0  1.2 0.32 0  1.24 0.32 0  1.28 0.32 0  1.32 0.32 0  1.36 0.32 0  1.4 0.32 0  1.44 0.32 0  1.48 0.32 0  1.52 0.32 0  1.56 0.32 0  1.6 0.32 0  1.64 0.32 0  1.68 0.32 0  1.72 0.32 0  1.76 0.32 0  1.8 0.32 0  1.84 0.32 0  1.88 0.32 0  1.92 0.32 0  1.96 0.32 0  2 0.32 0  2.04 0.32 0  2.08 0.32 0  2.12 0.32 0  2.16 0.32 0  2.2 0.32 0  2.24 0.32 0  2.28 0.32 0  2.32 0.32 0  2.36 0.32 0  2.4 0.32 0  0.0400579 0.359942 0  0 0.36 0  0.0801229 0.359891 0  0.120183 0.359873 0  0.160175 0.35994 0  0.199997 0.360086 0  0.239816 0.359936 0  0.279804 0.359862 0  0.319855 0.359871 0  0.359906 0.359906 0  0.399941 0.35994 0  0.439962 0.359964 0  0.479975 0.359979 0  0.5199820000000001 0.359989 0  0.559987 0.359994 0  0.59999 0.359997 0  0.639993 0.359998 0  0.679994 0.359999 0  0.7199950000000001 0.36 0  0.759996 0.36 0  0.799997 0.36 0  0.839997 0.36 0  0.8799979999999999 0.36 0  0
[...]
<PointData  Scalars="f_10391-2"> 
<DataArray  type="Float64"  Name="f_10391-2"  format="ascii">3.0666508632183138e-04  3.0579580573567554e-04  3.2259871445074179e-04  3.2361190948521052e-04  2.9128742918635778e-04  3.0985999624267695e-04  2.5566029630520303e-04  2.7196454377340047e-04  2.0506979566502551e-04  2.1560168966145544e-04  1.5322681318190513e-04  1.5876737024541845e-04  1.0895108354600164e-04  1.1147788977608872e-04  7.5023396754483112e-05  7.6110016824877213e-05  5.0442399774228189e-05  5.0919096354937462e-05  3.3185471389995751e-05  3.3402497515444630e-05  2.1352766104702509e-05  2.1450467747058784e-05  1.3422150553889596e-05  1.3461515135947273e-05  8.2334516455291227e-06  8.2443806285522119e-06  4.9244789077406853e-06  4.9228264416329761e-06  2.8699492782598308e-06  2.8639917032597881e-06  1.6289586568704190e-06  1.6225450596209935e-06  9.0012343312006454e-07  8.9477192519378727e-07  4.8407899927889237e-07  4.8016760642563097e-07  2.5330489112310552e-07  2.5067305566150623e-07  1.2894098110311176e-07  1.2727801401292179e-07  6.3837649696949578e-08  6.2840261884837476e-08  3.0734482950694398e-08  3.0163640081416664e-08  1.4386966862699595e-08  1.4073180095211646e-08  6.5469465414140399e-09  6.3810146292039522e-09  2.8957807086647425e-09  2.8112849592840739e-09  1.2447526427695682e-09  1.2031915727459264e-09  5.1989810505685199e-10  5.0016122201510577e-10  2.1095910947128841e-10  2.0189725194947122e-10  8.3147072314949026e-11  7.9122369379689574e-11  3.1826193443846855e-11  3.0096375526039500e-11  1.1828463354584851e-11  1.1108792854650612e-11  4.2676707066479849e-12  3.9777961318337676e-12  1.4944528944410599e-12  1.3813989571447095e-12  5.0781790054386615e-13  4.6512208117942159e-13  1.6740558077451598e-13  1.5179156434557315e-13  5.3526146359131792e-14  4.7996853496293748e-14  1.6595462355634333e-14  1.4699507206777776e-14  4.9880216315423799e-15  4.3585793151277458e-15  1.4529999097040971e-15  1.2506942676529663e-15  4.1008838509422492e-16  3.4714828252959490e-16  1.1210715969374662e-16  9.3155300368587076e-17  2.9675182943315424e-17  2.4153096765240761e-17  7.6033948574870375e-18  6.0467391181696655e-18  1.8850122627286973e-18  1.4605632088167938e-18  4.5199806289496929e-19  3.4008212955149014e-19  1.0478038321214068e-19  7.6252614632184385e-20  2.3470775471169558e-20  1.6443083882307976e-20  5.0773278646846275e-21  3.4048147274496366e-21  1.0600451639456215e-21  6.7567182242650128e-22  2.1343880782309997e-22  1.2817716605830079e-22  4.1410067246993576e-23  2.3165846301729747e-23  7.7334872327606131e-24  3.9700934703663728e-24  1.3884897899478120e-24  6.4071617880272633e-25  2.3930370500442922e-25  9.6320828343042984e-26  3.9516279066366966e-26  1.3236777253653508e-26  6.2370719728142796e-27  1.6011320070705868e-27  9.3804691083420156e-28  1.5450784093907641e-28  1.3390694820663593e-28  7.3216498092497759e-30  1.8080587889380750e-29  -1.4204239301287498e-30  2.3750787220573090e-30  -5.4403097447176960e-31  6.4719499380108521e-31  -1.9895720919045801e-31  3.6256788578961131e-04  3.6063705143563822e-04  3.5587588669442103e-04  3.1478193830803119e-04  2.4437272795019342e-04  1.7358676225816860e-04  1.1778265400939166e-04  7.8774724224835906e-05  5.2208748574051676e-05  3.4105121543733350e-05  2.1847913748303156e-05  1.3683004893079773e-05  8.3632584196905920e-06  4.9838366923926431e-06  2.8937423807155907e-06  1.6362324842712151e-06  9.0064770607092307e-07  4.8243955526523592e-07  2.5141133011821891e-07  1.2742995844028858e-07  6.2803753008643033e-08  3.0091866668109618e-08  1.4014051720998086e-08  6.3422101662260574e-09  2.7885686899713533e-09  1.1910047554259615e-09  4.9402047363672049e-10  1.9896121740379305e-10  7.7782668042026634e-11  2.9510759314607912e-11  1.0862977028282990e-11  3.8785561357180334e-12  1.3428253448752897e-12  4.5067783276475422e-13  1.4657896134934767e-13  4.6183784910563398e-14  1.4091755354626356e-14  4.1623064659426614e-15  1.1896571796392506e-15  3.2888356969199437e-16  8.7901409652014893e-17  2.2702304716067826e-17  5.6628591717592381e-18  1.3634750966958630e-18  3.1669452500752520e-19  7.0914264346081790e-20  1.5297743654650883e-20  3.1769436643431464e-21  6.3469355134456041e-22  1.2189556852521467e-22  2.2491763146061880e-23  3.9858007458373160e-24  6.7843758691287745e-25  1.1102334714438372e-25  1.7508849776953016e-26  2.6733732678705090e-27  3.9835726193465580e-28  5.8636586948147970e-29  8.6775746563730582e-30  1.3556491785962272e-30  4.3485085120223170e-31  4.0296173695475847e-04  3.9957295189793233e-04  4.0093476692275868e-04  3.6143702301985142e-04  2.8075914196577540e-04  1.9067015099619511e-04  1.2280673613315786e-04  8.0522555526976036e-05  5.3258506637881527e-05  3.4827319906440636e-05  2.2314115272105216e-05  1.3960707410401457e-05  8.5184627566220202e-06  5.0661676351836887e-06  2.9353881725267632e-06  1.6564348153794823e-06  9.1001467549635458e-07  4.8656734925867249e-07  2.5312583789194023e-07  1.2808205399471510e-07  6.3024620611201500e-08  3.0149270102638034e-08  1.4018285915153342e-08  6.3339809952270872e-09  2.7804112502852792e-09  1.1855057689752028e-09  4.9088451938789404e-10  1.9733987969098052e-10  7.7002269806132372e-11  2.9156297932168348e-11  1.0709897343734549e-11  3.8153977302134783e-12  1.3178538453885518e-12  4.4119698628327589e-13  1.4311785104548430e-13  4.4967779474645085e-14  1.3680365179180115e-14  4.0282450223501208e-15  1.1475698701298310e-15  3.1615443722839328e-16  8.4192957455643057e-17  2.1661767582264103e-17  5.3817401347829417e-18  1.2903663140320741e-18  2.9839741478652309e-19  6.6508299314998707e-20  1.4276941021922264e-20  2.9493168894353097e-21  5.8579696305701607e-22  1.1175854402180641e-22  2.0456729552199446e-23  3.5880332830475489e-24  6.0211872391996244e-25  9.6492526755567914e-26  1.4729734878921083e-26  2.1338617736179320e-27  2.9155779401912351e-28  3.7149502497722189e-29  4.3222191114896227e-30  4.5474621446324008e-31  8.1416607690630247e-32  4.2908053849545936e-04  4.2666563749018814e-04  4.2664735058828952e-04  3.9563258889191449e-04  3.2670611135012726e-04  1.9844665645342481e-04  1.1366145183142171e-04  7.7857391496521504e-05  5.3039761240148891e-05  3.5162595556277437e-05  2.2640521601349999e-05  1.4177569513491777e-05  8.6435603961344517e-06  5.1328882941093957e-06  2.9691157754843498e-06  1.6726439149172676e-06  9.1742502842340376e-07  4.8977411253874574e-07  2.5441319336496548e-07  1.2854897332082162e-07  6.3164275822873451e-08  3.0173711203540389e-08  1.4009846140110885e-08  6.3209391561299183e-09  2.7705760655619802e-09  1.1794923084045311e-09  4.8760865808774677e-10  1.9569107474096289e-10  7.6222192951771017e-11  2.8806174495382142e-11  1.0559935816726250e-11  3.7538823558452131e-12  1.2936288576719255e-12  4.3202383131810225e-13  1.3977412251653728e-13  4.3793637531434706e-14  1.3282988792378881e-14  3.8985829436151947e-15  1.1067731401197018e-15  3.0377609099679122e-16  8.0571221169842239e-17  2.0640002022315193e-17  5.1038306367543584e-18  1.2175055904245428e-18  2.7998819525543007e-19  6.2026600941590828e-20  1.3225879853104826e-20  2.7119003902974135e-21  5.3415173649723270e-22  1.0094079419326056e-22  1.8275071656595298e-23  3.1644692554404352e-24  5.2298080797671255e-25  8.2275592260096046e-26  1.2278977558081328e-26  1.7302868098624476e-27  2.2867440326154607e-28  2.8065070846945533e-29  3.1595963053849673e-30  3.3503745753822035e-31  7.2496913639184720e-32  4.3985531257743329e-04  4.3772260141182820e-04  4.3625774545406198e-04  4.1220892899061296e-04  3.8108988039835278e-04  7.2205650516927926e-05  8.8926956480187542e-05  5.2133318001828690e-05  3.5169964915259139e-05  2.2754589577026430e-05  1.4261092928237631e-05  8.6908237203542719e-06  5.1566823411668582e-06  2.9800431613508377e-06  1.6772017729486922e-06  9.1903916971932442e-07  4.9015544527439244e-07  2.5436351985121762e-07  1.2839582490319184e-07  6.3024219049951977e-08  3.0074490053682499e-08  1.3947988486842013e-08  6.2853472547661572e-09  2.7514484927628773e-09  1.1697469989401334e-09  4.8287050382330382e-10  1.9348401518145110e-10  7.5234630052348673e-11  2.8380975160754400e-11  1.0383561786869710e-11  3.6833395627761334e-12  1.2664086764283635e-12  4.2188681916494267e-13  1.3612988274538455e-13  4.2528817394887255e-14  1.2859166679190471e-14  3.7614796390561735e-15  1.0639607166127174e-15  2.9087361893179307e-16  7.6819247333582319e-17  1.9587526331300347e-17  4.8191288593668965e-18  1.1432663620236211e-18  2.6133472745654265e-19  5.7512598669570808e-20  1.2174395323702166e-20  2.4762823113062908e-21  4.8339923757282805e-22  9.0441483375920077e-23  1.6191374998423030e-23  2.7683248884867667e-24  4.5097398264476927e-25  6.9795895486675206e-26  1.0225049389378544e-26  1.4112879566794327e-27  1.8239813808797291e-28  2.1904498525906867e-29  2.4296747441892529e-30  2.5994962318296667e-31  5.9177820911422838e-32  4.3294775541835627e-04  4.2930663515290560e-04  4.2806721076439646e-04  3.9035660325329022e-04  3.2144659788443518e-04  7.7953999277565592e-05  1.1447968629206094e-04  5.3246281445339525e-05  3.5289336355969438e-05  2.2694327633708043e-05  1.4192996264735352e-05  8.6429026514261163e-06  5.1269519328054977e-06  2.9625483835416757e-06  1.6671426079513577e-06  9.1337947133959285e-07  4.8700722167533460e-07  2.5263760243848831e-07  1.2746699215375568e-07  6.2530833322029256e-08  2.9818318716541458e-08  1.3817976770524407e-08  6.2211110464600944e-09  2.7204687839694129e-09  1.1552121106918821e-09  4.7624359582253919e-10  1.9055096561165926e-10  7.3975094651914803e-11  2.7856594037380340e-11  1.0172008154858742e-11  3.6006709784304493e-12  1.2351309946640794e-12  4.1043320255475149e-13  1.3207187826038031e-13  4.1138239391016954e-14  1.2398440779021843e-14  3.6139418325983613e-15  1.0183127774865786e-15  2.7723305084471587e-16  7.2884073451018087e-17  1.8491981138609007e-17  4.5249364127641115e-18  1.0671023417662048e-18  2.4233504196866767e-19  5.2948485085464001e-20  1.1119320512560248e-20  2.2417565806492427e-21  4.3331604296255464e-22  8.0176991916883651e-23  1.4174899570486776e-23  2.3891713943330549e-24  3.8286348978989561e-25  5.8133046246204086e-26  8.3268458666087601e-27  1.1187030873063177e-27  1.3987951320408345e-28  1.6107580112112895e-29  1.6889301301256265e-30  1.6717517566603792e-31  3.5036131664495225e-32  4.0416560144236673e-04  3.9918833844838068e-04  4.0145048329699539e-04  3.5939027216481435e-04  2.7956167609758428e-04  2.0142114142401139e-04  1.8899199417148730e-04  1.2388415295646861e-04  8.1195045007814544e-05  5.3650283690288122e-05  3.5019540693949742e-05  2.2390017694091368e-05  1.3979017640992358e-05  8.5122993296558129e-06  5.0524384135580952e-06  2.9215594599705707e-06  1.6451182005066120e-06  9.0174932977420779e-07  4.8096987575813358e-07  2.4953712181136056e-07  1.2589544652974961e-07  6.1746519710225922e-08  2.9432406751362583e-08  1.3631311691955617e-08  6.1325379933268844e-09  2.6793696505639324e-09  1.1365425658063961e-09  4.6796690760410969e-10  1.8697456688325109e-10  7.2470974050229576e-11  2.7241596127336450e-11  9.9277475158154705e-12  3.5065123924136769e-12  1.1999283138410556e-12  3.9767708084746910e-13  1.2759440592585931e-13  3.9616703941428453e-14  1.1898126296627313e-14  3.4548305254591439e-15  9.6939747132604836e-16  2.6270314892833244e-16  6.8715964740019521e-17  1.7337863056741466e-17  4.2166452972691419e-18  9.8770239228260579e-19  2.2263095409626213e-19  4.8240102093801245e-20  1.0036799801120727e-20  2.0024922268618282e-21  3.8252661504426977e-22  6.9834344444609939e-23  1.2157104907912721e-23  2.0126227488840578e-24  3.1577800548556264e-25  4.6749789670295171e-26  6.4926973257663456e-27  8.3914973886125560e-28  9.9775490910541447e-29  1.0726902790467756e-29  1.0176680640691915e-30  8.7060064361412250e-32  1.6213207725412620e-32  3.5776482980651755e-04  3.5518251565778714e-04  3.5331786215431486e-04  3.1652619291022547e-04  2.4766647734173109e-04  1.7491471706985496e-04  1.1895124105186597e-04  7.9432451186878719e-05  5.2580407676941740e-05  3.4282626888168208e-05  2.1910673448210997e-05  1.3687282605721341e-05  8.3436358128487862e-06  4.9583337590866648e-06  2.8704646448814601e-06  1.6179388845873519e-06  8.8751702042892805e-07  4.7361526543437279e-07  2.4579008035534293e-07  1.2401199673941624e-07  6.0811818281211488e-08  2.8976083475436603e-08  1.3412293543758982e-08  6.0292189994315955e-09  2.6316143512098926e-09  1.1149780983604317e-09  4.5844756902351798e-10  1.8287723823122597e-10  7.0753891585537547e-11  2.6541597706778533e-11  9.6504571360102683e-12  3.3998714225051786e-12  1.1601424115680378e-12  3.8328744082994189e-13  1.2255228395241183e-13  3.7906031624770145e-14  1.1336468493377971e-14  3.2764701810692017e-15  9.1464293288549017e-16  2.4646224201864260e-16  6.4063996673266321e-17  1.6051812516250775e-17  3.8737047566883873e-18  8.9954784733674427e-19  2.0080182490253601e-19  4.3036995490340755e-20  8.8440436791982746e-21  1.7397807090259440e-21  3.2699324703514896e-22  5.8583162690156704e-23  9.9757900980846806e-24  1.6087290686678401e-24  2.4452808176521415e-25  3.4812370358680044e-26  4.6010247222729586e-27  5.5723372449730901e-28  6.0585347363567730e-29  5.7076547313133078e-30  4.3632204111253549e-31  2.6350223448394379e-32  4.8117774931077609e-33  3.1646135244578618e-04  3.1793718444136579e-04  3.0648184101236868e-04  2.7449426219587728e-04  2.2015432381230899e-04  1.6143103912011713e-04  1.1288866775025244e-04  7.6793800701711770e-05  5.1236572347758240e-05  3.3520349367724012e-05  2.1463366682087652e-05  1.3426819576227104e-05  8.1948182379012217e-06  4.8750048831651231e-06  2.8245523172499587e-06  1.5930185024235252e-06  8.7413556796590447e-07  4.6652040351113886e-07  2.4206852066953463e-07  1.2208251701833023e-07  5.9826984352176307e-08  2.8481770004684700e-08  1.3168517885232120e-08  5.9116113066779280e-09  2.5761053891893606e-09  1.0894427236343006e-09  4.4699137811098575e-10  1.7787660659994255e-10  6.8632328963329888e-11  2.5667590345145626e-11  9.3011085919321389e-12  3.2644798966253634e-12  1.1092972887664428e-12  3.6479506626652961e-13  1.1604202635471839e-13  3.5688589638910292e-14  1.0606093334072723e-14  3.0439448979693172e-15  8.4312563384394796e-16  2.2522264323625799e-16  5.7976477127144401e-17  1.4368982217141484e-17  3.4252996812151273e-18  7.8446077548758369e-19  1.7237241985932952e-19  3.6283819788518425e-20  7.3030403461161798e-21  1.4023870385323978e-21  2.5621572232670012e-22  4.4381450351453461e-23  7.2558066036247441e-24  1.1127842897919140e-24  1.5873075428710345e-25  2.0792829173175226e-26  2.4506791802817941e-27  2.5043460941170023e-28  2.0442199963645752e-29  1.0067372093141718e-30  -3.3423469278506381e-32  -1.0032212921101079e-32  1.6281521834165176e-33  3.0101011479305098e-04  3.0548221126474532e-04  2.8835607661880031e-04  2.5772213840727023e-04  2.0903021657710995e-04  1.5570002248703219e-04  1.1005842757287023e-04  7.5403021666942677e-05  5.0494688784800810e-05  3.3094767034439882e-05  2.1208928349902930e-05  1.3272117976707760e-05  8.1004754434193115e-06  4.8175371631866787e-06  2.7897751657670561e-06  1.5721467158985663e-06  8.6177256535420182e-07  4.5929980289274442e-07  2.3793225848851609e-07  1.1976527553497818e-07  5.8560392128595532e-08  2.7807005527200947e-08  1.2819254313033091e-08  5.7360400433690286e-09  2.4904594862893986e-09  1.0489033915143716e-09  4.2839254462836892e-10  1.6961045923670446e-10  6.5074581404760893e-11  2.4185205962508024e-11  8.7033453546960710e-12  3.0312673650346873e-12  1.0212941223341293e-12  3.3268566144632113e-13  1.0471778309157659e-13  3.1829598690713846e-14  9.3359359183549765e-15  2.6403211723169910e-15  7.1935169301398482e-16  1.8861329299252651e-16  4.7538481927925473e-17  1.1501987027353560e-17  2.6672303649429140e-18  5.9166052009372489e-19  1.2525131579159428e-19  2.5228786183425510e-20  4.8165473081992879e-21  8.6703694955370500e-22  1.4608322161239659e-22  2.2782148277479311e-23  3.2288491500872455e-24  4.0167862046906378e-25  4.0376171559154767e-26  2.3522585267044110e-27  -2.1228544584389742e-28  -1.0040110335436962e-28  -2.0568983177626614e-29  -3.0047504873745931e-30  -3.0921140307726188e-31  -1.0702507838893258e-32  8.0047254437963035e-33  </DataArray> 
</PointData> 
</Piece>
</UnstructuredGrid>
</VTKFile>