<?xml version="1.0"?>
<VTKFile type="UnstructuredGrid"  version="0.1"  >
<UnstructuredGrid>
<Piece  NumberOfPoints="670" NumberOfCells="1192">
<Points>
<DataArray  type="Float64"  NumberOfComponents="3"  format="ascii">0 0 0  0.04 -1.31357e-10 0  0.0400579 0.0400582 0  0 0.04 0  0.08 -2.62713e-10 0  0.080123 0.0401093 0  0.12 -3.9407e-10 0  0.120183 0.040127 0  0.16 -5.25427e-10 0  0.160176 0.0400597 0  0.2 -6.56784e-10 0  0.199997 0.0399142 0  0.24 -7.8814e-10 0  0.239816 0.0400642 0  0.28 -9.19497e-10 0  0.279804 0.0401377 0  0.32 -1.05085e-09 0  0.319855 0.0401297 0  0.36 -1.18221e-09 0  0.359906 0.0400945 0  0.4 -1.31357e-09 0  0.399941 0.0400609 0  0.44 -1.44492e-09 0  0.439962 0.0400367 0  0.48 -1.57628e-09 0  0.479975 0.0400214 0  0.52 -1.70764e-09 0  0.519983 0.0400122 0  0.5600000000000001 -1.83899e-09 0  0.559987 0.0400069 0  0.6 -1.97035e-09 0  0.59999 0.040004 0  0.64 -2.10171e-09 0  0.639993 0.0400023 0  0.68 -2.23306e-09 0  0.679994 0.0400013 0  0.72 -2.36442e-09 0  0.7199950000000001 0.0400008 0  0.76 -2.49578e-09 0  0.759996 0.0400005 0  0.8 -2.62713e-09 0  0.799997 0.0400002 0  0.84 -2.75849e-09 0  0.839997 0.0400001 0  0.88 -2.88985e-09 0  0.8799979999999999 0.04 0  0.92 -3.0212e-09 0  0.919999 0.0399999 0  0.96 -3.15256e-09 0  0.959999 0.0399998 0  1 -3.28392e-09 0  1 0.0399998 0  1.04 -3.41527e-09 0  1.04 0.0399998 0  1.08 -3.54663e-09 0  1.08 0.0399998 0  1.12 -3.67799e-09 0  1.12 0.0399998 0  1.16 -3.80934e-09 0  1.16 0.0399999 0  1.2 -3.9407e-09 0  1.2 0.04 0  1.24 -4.07206e-09 0  1.24 0.04 0  1.28 -4.20341e-09 0  1.28 0.0400001 0  1.32 -4.33477e-09 0  1.32 0.0400001 0  1.36 -4.46613e-09 0  1.36 0.04 0  1.4 -4.59748e-09 0  1.4 0.04 0  1.44 -4.72884e-09 0  1.44 0.04 0  1.48 -4.8602e-09 0  1.48 0.04 0  1.52 -4.99156e-09 0  1.52 0.04 0  1.56 -5.12291e-09 0  1.56 0.04 0  1.6 -5.25427e-09 0  1.6 0.0400001 0  1.64 -5.38563e-09 0  1.64 0.0400001 0  1.68 -5.51698e-09 0  1.68 0.04 0  1.72 -5.64834e-09 0  1.72 0.04 0  1.76 -5.7797e-09 0  1.76 0.04 0  1.8 -5.91105e-09 0  1.8 0.04 0  1.84 -6.04241e-09 0  1.84 0.04 0  1.88 -6.17377e-09 0  1.88 0.0400001 0  1.92 -6.30512e-09 0  1.92 0.0400001 0  1.96 -6.43648e-09 0  1.96 0.0400001 0  2 -6.56784e-09 0  2 0.0400001 0  2.04 -6.69919e-09 0  2.04 0.0400001 0  2.08 -6.83055e-09 0  2.08 0.04 0  2.12 -6.96191e-09 0  2.12 0.04 0  2.16 -7.09326e-09 0  2.16 0.0400001 0  2.2 -7.22462e-09 0  2.2 0.04 0  2.24 -7.35598e-09 0  2.24 0.04 0  2.28 -7.48733e-09 0  2.28 0.0399999 0  2.32 -7.618690000000001e-09 0  2.32 0.04 0  2.36 -7.750049999999999e-09 0  2.36 0.04 0  2.4 -7.8814e-09 0  2.4 0.04 0  0.0401088 0.0801235 0  0 0.08 0  0.0802509 0.0802518 0  0.120434 0.0803392 0  0.160522 0.0801977 0  0.199995 0.0795328 0  0.239464 0.0802049 0  0.279544 0.08035689999999999 0  0.319711 0.0802867 0  0.359828 0.08018740000000001 0  0.399896 0.0801123 0  0.439933 0.0800646 0  0.479955 0.0800365 0  0.519968 0.08002049999999999 0  0.559976 0.0800116 0  0.599982 0.0800066 0  0.6399860000000001 0.0800039 0  0.679989 0.0800023 0  0.719991 0.0800014 0  0.759992 0.0800008 0  0.799994 0.0800004 0  0.839995 0.08000019999999999 0  0.879996 0.0799999 0  0.919997 0.07999970000000001 0  0.959999 0.0799996 0  1 0.0799995 0  1.04 0.0799995 0  1.08 0.0799996 0  1.12 0.07999970000000001 0  1.16 0.0799998 0  1.2 0.08 0  1.24 0.0800001 0  1.28 0.0800001 0  1.32 0.0800001 0  1.36 0.08 0  1.4 0.0799999 0  1.44 0.0799999 0  1.48 0.0799999 0  1.52 0.0799999 0  1.56 0.08 0  1.6 0.0800001 0  1.64 0.0800001 0  1.68 0.08 0  1.72 0.0799999 0  1.76 0.0799999 0  1.8 0.0799999 0  1.84 0.0799999 0  1.88 0.08 0  1.92 0.0800001 0  1.96 0.0800001 0  2 0.0800001 0  2.04 0.08 0  2.08 0.0799999 0  2.12 0.0799999 0  2.16 0.08 0  2.2 0.08 0  2.24 0.0799999 0  2.28 0.0799998 0  2.32 0.0799999 0  2.36 0.0799999 0  2.4 0.08 0  0.0401262 0.120184 0  0 0.12 0  0.0803378 0.120435 0  0.120779 0.12078 0  0.161485 0.120859 0  0.199996 0.117814 0  0.238503 0.120866 0  0.279195 0.120798 0  0.319616 0.120473 0  0.359799 0.120256 0  0.39988 0.120136 0  0.439921 0.120073 0  0.479944 0.120039 0  0.519958 0.120022 0  0.5599690000000001 0.120012 0  0.599976 0.120007 0  0.639981 0.120004 0  0.679985 0.120002 0  0.719987 0.120002 0  0.7599900000000001 0.120001 0  0.799991 0.12 0  0.839993 0.12 0  0.879995 0.12 0  0.919996 0.12 0  0.959998 0.119999 0  1 0.119999 0  1.04 0.119999 0  1.08 0.119999 0  1.12 0.12 0  1.16 0.12 0  1.2 0.12 0  1.24 0.12 0  1.28 0.12 0  1.32 0.12 0  1.36 0.12 0  1.4 0.12 0  1.44 0.12 0  1.48 0.12 0  1.52 0.12 0  1.56 0.12 0  1.6 0.12 0  1.64 0.12 0  1.68 0.12 0  1.72 0.12 0  1.76 0.12 0  1.8 0.12 0  1.84 0.12 0  1.88 0.12 0  1.92 0.12 0  1.96 0.12 0  2 0.12 0  2.04 0.12 0  2.08 0.12 0  2.12 0.12 0  2.16 0.12 0  2.2 0.12 0  2.24 0.12 0  2.28 0.12 0  2.32 0.12 0  2.36 0.12 0  2.4 0.12 0  0.0400582 0.160177 0  0 0.16 0  0.0801954 0.160525 0  0.120857 0.161488 0  0.164645 0.164645 0  0.2 0.15 0  0.235355 0.164645 0  0.279119 0.161498 0  0.319759 0.16055 0  0.359874 0.160228 0  0.399906 0.160104 0  0.439925 0.160051 0  0.479941 0.160027 0  0.519954 0.160014 0  0.559964 0.160008 0  0.5999719999999999 0.160005 0  0.639978 0.160003 0  0.679982 0.160002 0  0.719985 0.160001 0  0.759988 0.160001 0  0.79999 0.16 0  0.839992 0.16 0  0.8799940000000001 0.16 0  0.919996 0.159999 0  0.959998 0.159999 0  1 0.159999 0  1.04 0.159999 0  1.08 0.159999 0  1.12 0.16 0  1.16 0.16 0  1.2 0.16 0  1.24 0.16 0  1.28 0.16 0  1.32 0.16 0  1.36 0.16 0  1.4 0.16 0  1.44 0.16 0  1.48 0.16 0  1.52 0.16 0  1.56 0.16 0  1.6 0.16 0  1.64 0.16 0  1.68 0.16 0  1.72 0.16 0  1.76 0.16 0  1.8 0.16 0  1.84 0.16 0  1.88 0.16 0  1.92 0.16 0  1.96 0.16 0  2 0.16 0  2.04 0.16 0  2.08 0.16 0  2.12 0.16 0  2.16 0.16 0  2.2 0.16 0  2.24 0.16 0  2.28 0.16 0  2.32 0.16 0  2.36 0.16 0  2.4 0.16 0  0.0399111 0.2 0  0 0.2 0  0.0795281 0.2 0  0.117811 0.2 0  0.15 0.2 0  0.282167 0.2 0  0.25 0.2 0  0.320429 0.2 0  0.36003 0.200001 0  0.399944 0.200001 0  0.439934 0.200001 0  0.479942 0.200001 0  0.519953 0.200001 0  0.559963 0.200001 0  0.59997 0.200001 0  0.639976 0.200001 0  0.6799809999999999 0.200001 0  0.719984 0.200001 0  0.759987 0.200001 0  0.799989 0.2 0  0.839991 0.2 0  0.879993 0.2 0  0.919996 0.199999 0  0.959998 0.199999 0  1 0.199999 0  1.04 0.199999 0  1.08 0.199999 0  1.12 0.2 0  1.16 0.2 0  1.2 0.2 0  1.24 0.2 0  1.28 0.2 0  1.32 0.2 0  1.36 0.2 0  1.4 0.2 0  1.44 0.2 0  1.48 0.2 0  1.52 0.2 0  1.56 0.2 0  1.6 0.2 0  1.64 0.2 0  1.68 0.2 0  1.72 0.2 0  1.76 0.2 0  1.8 0.2 0  1.84 0.2 0  1.88 0.2 0  1.92 0.2 0  1.96 0.2 0  2 0.2 0  2.04 0.2 0  2.08 0.2 0  2.12 0.2 0  2.16 0.2 0  2.2 0.2 0  2.24 0.2 0  2.28 0.2 0  2.32 0.2 0  2.36 0.2 0  2.4 0.2 0  0.0400582 0.239823 0  0 0.24 0  0.0801953 0.239475 0  0.120857 0.238513 0  0.164645 0.235355 0  0.279119 0.238502 0  0.235355 0.235355 0  0.319759 0.239451 0  0.359873 0.239774 0  0.399905 0.239898 0  0.439925 0.239951 0  0.479941 0.239976 0  0.519954 0.239988 0  0.559964 0.239994 0  0.5999719999999999 0.239997 0  0.639977 0.239999 0  0.679982 0.24 0  0.719985 0.24 0  0.759987 0.24 0  0.79999 0.24 0  0.839992 0.24 0  0.8799940000000001 0.24 0  0.919996 0.239999 0  0.959998 0.239999 0  1 0.239999 0  1.04 0.239999 0  1.08 0.239999 0  1.12 0.24 0  1.16 0.24 0  1.2 0.24 0  1.24 0.24 0  1.28 0.24 0  1.32 0.24 0  1.36 0.24 0  1.4 0.24 0  1.44 0.24 0  1.48 0.24 0  1.52 0.24 0  1.56 0.24 0  1.6 0.24 0  1.64 0.24 0  1.68 0.24 0  1.72 0.24 0  1.76 0.24 0  1.8 0.24 0  1.84 0.24 0  1.88 0.24 0  1.92 0.24 0  1.96 0.24 0  2 0.24 0  2.04 0.24 0  2.08 0.24 0  2.12 0.24 0  2.16 0.24 0  2.2 0.24 0  2.24 0.24 0  2.28 0.24 0  2.32 0.24 0  2.36 0.24 0  2.4 0.24 0  0.0401261 0.279816 0  0 0.28 0  0.0803376 0.279565 0  0.120778 0.27922 0  0.161485 0.279141 0  0.2 0.25 0  0.199996 0.282186 0  0.238503 0.279135 0  0.279195 0.279202 0  0.319616 0.279528 0  0.359799 0.279745 0  0.39988 0.279865 0  0.43992 0.279929 0  0.479944 0.279962 0  0.519958 0.27998 0  0.559968 0.27999 0  0.599976 0.279995 0  0.639981 0.279998 0  0.679984 0.279999 0  0.719987 0.28 0  0.759989 0.28 0  0.799991 0.28 0  0.839993 0.28 0  0.879995 0.28 0  0.919997 0.279999 0  0.959998 0.279999 0  1 0.279999 0  1.04 0.279999 0  1.08 0.28 0  1.12 0.28 0  1.16 0.28 0  1.2 0.28 0  1.24 0.28 0  1.28 0.28 0  1.32 0.28 0  1.36 0.28 0  1.4 0.28 0  1.44 0.28 0  1.48 0.28 0  1.52 0.28 0  1.56 0.28 0  1.6 0.28 0  1.64 0.28 0  1.68 0.28 0  1.72 0.28 0  1.76 0.28 0  1.8 0.28 0  1.84 0.28 0  1.88 0.28 0  1.92 0.28 0  1.96 0.28 0  2 0.28 0  2.04 0.28 0  2.08 0.28 0  2.12 0.28 0  2.16 0.28 0  2.2 0.28 0  2.24 0.28 0  2.28 0.28 0  2.32 0.28 0  2.36 0.28 0  2.4 0.28 0  0.0401086 0.319877 0  0 0.32 0  0.08025060000000001 0.319748 0  0.120433 0.319661 0  0.160522 0.319802 0  0.199995 0.320467 0  0.239464 0.319795 0  0.279543 0.319643 0  0.31971 0.319714 0  0.359828 0.319813 0  0.399895 0.319889 0  0.439933 0.319937 0  0.479955 0.319965 0  0.519968 0.319981 0  0.559976 0.31999 0  0.599982 0.319995 0  0.6399860000000001 0.319998 0  0.679989 0.319999 0  0.719991 0.32 0  0.759992 0.32 0  0.799994 0.32 0  0.839995 0.32 0  0.879996 0.32 0  0.919998 0.32 0  0.959999 0.32 0  1 0.32 0  1.04 0.32 0  1.08 0.32 0  1.12 0.32 0  1.16 0.32 0  1.2 0.32 0  1.24 0.32 0  1.28 0.32 0  1.32 0.32 0  1.36 0.32 0  1.4 0.32 0  1.44 0.32 0  1.48 0.32 0  1.52 0.32 0  1.56 0.32 0  1.6 0.32 0  1.64 0.32 0  1.68 0.32 0  1.72 0.32 0  1.76 0.32 0  1.8 0.32 0  1.84 0.32 0  1.88 0.32 0  1.92 0.32 0  1.96 0.32 0  2 0.32 0  2.04 0.32 0  2.08 0.32 0  2.12 0.32 0  2.16 0.32 0  2.2 0.32 0  2.24 0.32 0  2.28 0.32 0  2.32 0.32 0  2.36 0.32 0  2.4 0.32 0  0.0400579 0.359942 0  0 0.36 0  0.0801229 0.359891 0  0.120183 0.359873 0  0.160175 0.35994 0  0.199997 0.360086 0  0.239816 0.359936 0  0.279804 0.359862 0  0.319855 0.359871 0  0.359906 0.359906 0  0.399941 0.35994 0  0.439962 0.359964 0  0.479975 0.359979 0  0.5199820000000001 0.359989 0  0.559987 0.359994 0  0.59999 0.359997 0  0.639993 0.359998 0  0.679994 0.359999 0  0.7199950000000001 0.36 0  0.759996 0.36 0  0.799997 0.36 0  0.839997 0.36 0  0.8799979999999999 0.36 0  0
[...]
<PointData  Scalars="f_10391-2"> 
<DataArray  type="Float64"  Name="f_10391-2"  format="ascii">1.7473722080881835e-13  2.6412938175646535e-14  -3.1431196167171591e-13  -1.1699783376729955e-12  8.1831688627442012e-15  -6.7099973219474468e-14  1.1242461191062340e-15  -1.6460276985128098e-14  -1.1598389785303350e-16  7.9775713161674843e-16  6.2682898315664334e-18  -1.3996738462786528e-17  -2.1508638689117825e-19  -8.0388745936984691e-19  2.8867515417404355e-21  8.5238685837804446e-20  1.7845125253696564e-22  -4.1352834194724483e-21  -1.4531801405121261e-23  1.0642114204627383e-22  4.7288861493724826e-25  1.0226620875553886e-24  3.4436978701104698e-27  -2.7519888219928578e-25  -1.4676861536991203e-27  1.6608090717075104e-26  1.0785374918739463e-28  -6.0507942551371843e-28  -5.2296400065055933e-30  1.0128679747321540e-29  1.8317874382380747e-31  4.2651377058087039e-31  -3.9500334426098945e-33  -4.7809661052895346e-32  -2.5286038996962619e-35  2.5265785142035871e-33  7.6365273500765316e-36  -9.0012857064656399e-35  -4.4651697042165062e-37  1.8694911853882973e-36  1.6645229730267575e-38  1.9754992279299381e-38  -3.7322529234395635e-40  -4.1353775047700313e-39  -1.6595768005918890e-42  2.3183587105597153e-40  6.6576879238249474e-43  -8.3533930132563001e-42  -3.9264237257395365e-44  1.7639804270171115e-43  1.4706213913543828e-45  1.3403455261296964e-45  -3.4476680855313609e-47  -3.3568741680144925e-46  5.8751929920533388e-50  1.8202158768690598e-47  4.1228983863211057e-50  -5.9677871942817070e-49  -2.3012013576223621e-51  8.4897272590153872e-51  6.4711839128902859e-53  4.1537738617940099e-52  1.5440494728468510e-55  -4.0096326714595176e-53  -1.3674724273068707e-55  1.9109417322598976e-54  9.4546234328337607e-57  -5.9412424933329811e-56  -4.2706629175319991e-58  8.2023812945848846e-58  1.3939342381055521e-59  3.9917453082684769e-59  -2.7736251577750521e-61  -3.8426183769670923e-60  -2.1797303492544250e-63  1.8624394095256273e-61  5.1721781768989963e-64  -6.1502983630867765e-63  -2.8470442220604727e-65  1.1608411121586384e-64  1.0070200061246060e-66  1.6068330208859744e-66  -2.0970230830314823e-68  -2.6689370990928641e-67  -1.7293074050498993e-70  1.4352696345985932e-68  4.2408747516939301e-71  -5.1658308265324367e-70  -2.4806196967939629e-72  1.2076671775473194e-71  9.8882428011067306e-74  -4.1453288418642474e-74  -2.8907052206547678e-75  -1.3335857729089270e-74  5.2495397228339779e-77  8.4206216938531473e-76  2.6699757280513458e-79  -3.2396566862054190e-77  -6.9899572690362280e-80  8.3027257689669201e-79  3.3365168425078465e-81  -8.3484366071536069e-81  -9.6012665442140546e-83  -4.8415318434043594e-82  1.3045096265350336e-84  3.4113988068809174e-83  3.4244946344438424e-86  -1.1716608755289526e-84  -2.7683619562628975e-87  1.8633940613002440e-86  7.6423164135796271e-89  5.0621367604760419e-88  4.5373694405259292e-91  -5.0006014443165179e-89  -1.5162219783299855e-91  1.8921522772984630e-90  7.9252124358687686e-93  -2.6413322153308403e-92  -2.5678900980824009e-94  -1.4484065437878162e-93  -4.9897137339046110e-96  3.0816295554705580e-94  4.8169693056259641e-12  -1.0423959350974199e-12  1.2453332791855624e-12  1.2450629431884798e-13  -6.6030706797536420e-15  -2.0060613165096304e-16  1.7584315943380878e-17  -7.3225171613866632e-19  1.0620122243829821e-20  8.6669555694344099e-22  -8.3508183483314695e-23  4.1957577956566930e-24  -1.4006638276889585e-25  2.4989441226346615e-27  4.5970084286131412e-29  -5.8092037552986621e-30  2.4185081149651491e-31  -3.8631884876601679e-33  -2.2011384887220733e-34  2.2635096342720587e-35  -1.1569303549585913e-36  3.9275462145094012e-38  -7.0480084143868915e-40  -1.5961365171931755e-41  2.0635055927252643e-42  -1.0258607687149975e-43  3.0964544608608628e-45  -2.6872940541258362e-47  -3.5792102775589621e-48  2.9069875471042432e-49  -1.3908886816790165e-50  4.7879301733695068e-52  -1.0922714491263230e-53  3.9219272714939251e-56  1.1054735879000123e-56  -6.4582822618061423e-58  2.0315072526127056e-59  -1.9399200084976990e-61  -2.1516813079356361e-62  1.7362146362070876e-63  -8.0142511095397943e-65  2.5886233834518782e-66  -5.0659201464179901e-68  -2.9556625148683764e-70  7.6913796765057616e-71  -3.7175557339335168e-72  9.6134087340335769e-74  1.5433808753863743e-76  -1.6860315294498076e-76  1.0689795523311916e-77  -4.2909483335869750e-79  1.1487194803565029e-80  -1.1090014888548968e-82  -8.6427083034912409e-84  6.4481631048725847e-85  -2.5568382854344373e-86  6.0035261151135265e-88  4.9003993129590403e-91  -8.7808104855470873e-91  5.2565798099420816e-92  -3.8100594364586021e-93  7.0539049905456323e-12  5.7647402437600920e-12  -2.1869345001639622e-11  1.4350149459821115e-12  1.3845360561947478e-13  6.4829715821458920e-15  -1.9407630698980526e-16  3.5186649760800300e-18  1.4324618282625095e-19  -1.4871689008677368e-20  6.5338042175369910e-22  -1.4612627995046305e-23  -2.0885538669632846e-25  3.8384881004693016e-26  -2.1290742523932151e-27  7.5483557482616805e-29  -1.5745472839348862e-30  -6.8837477002148016e-33  2.1854932150244721e-33  -9.3356942784190408e-35  1.1557018248651289e-36  1.1467788021741682e-37  -1.0014503391104646e-38  4.6070313072413080e-40  -1.2640762658092979e-41  1.2522171671405163e-44  2.2488009089367560e-44  -1.6028789446982456e-45  7.3139829295423515e-47  -2.4048439310586319e-48  4.8789495510303077e-50  2.8671093726624010e-52  -8.3034234883020197e-53  4.5815521755810292e-54  -1.6173211760980975e-55  3.5303978636534620e-57  1.0666320494487536e-61  -4.1982802245451118e-60  2.1826276471313534e-61  -5.9672868739451843e-63  1.6441272359039525e-65  7.9093672088680301e-66  -4.7779656922014994e-67  1.5346669761423366e-68  -1.2686565457381219e-70  -1.9008723481746795e-71  1.4788832150029544e-72  -6.5324777283035333e-74  1.8259548684770025e-75  -1.1706452038401038e-77  -2.2614689332406554e-78  1.7095003746536880e-79  -7.8157465578757496e-81  2.5346206572490486e-82  -4.9288260249706318e-84  -4.5001100163278913e-86  9.4928988934967280e-87  -5.1762330446131220e-88  1.8725525867317004e-89  -4.7007631647263425e-91  6.2020612835474911e-93  -1.1179881140564803e-11  2.1036922757579240e-12  -6.5958337762801624e-11  1.1803324153152140e-11  -2.7702601560583997e-12  5.3891195449185046e-14  1.6216327984675996e-16  3.5598211929913005e-17  -2.8465900489705855e-18  9.7864706812613051e-20  -7.6286863336990755e-22  -1.2188183353395890e-22  8.6790741436880050e-24  -3.2572616472730018e-25  5.4701261233068648e-27  2.1438114442591114e-28  -2.3458918339928686e-29  1.1895878609354328e-30  -4.0860190989921139e-32  8.8607378573189658e-34  -2.2126243376668365e-36  -7.1706902044497282e-37  2.4893415307858056e-38  5.0364200319577194e-40  -1.0552788228644167e-40  7.0753140932140142e-42  -3.2266860788167543e-43  1.0770693928280091e-44  -2.3053712259914317e-46  -1.7493515325735487e-49  2.9430640810625183e-49  -1.5768036016052736e-50  4.6482050294500553e-52  -3.1809797594818134e-54  -5.4791890527025153e-55  4.0037104621972783e-56  -1.7282852226959098e-57  5.2213623303723127e-59  -9.9719773834412673e-61  4.1147260642122747e-63  2.0009747644438487e-64  2.7652179778315950e-65  -3.8402706304382702e-66  2.6071065270068761e-67  -1.2376157855692550e-68  4.2722994018686814e-70  -8.8822426672787959e-72  -8.7056183798658121e-74  1.9535039140436012e-74  -1.1300715463156480e-75  4.2658505503362661e-77  -9.9774021808552082e-79  -2.0019623145512537e-81  1.7013574336486161e-81  -1.0912042045297451e-82  4.5923797589182501e-84  -1.3901013514616505e-85  2.4704215799272887e-87  2.8387344816919757e-89  -4.8123127129408274e-90  4.5191648560090677e-91  -2.2398396117582925e-12  8.1605864106359685e-13  -1.6692446558458476e-11  -1.2474430476465557e-11  -2.7169647775697591e-12  1.3025038028491477e-18  -2.1179841301668560e-16  -8.3370846394886848e-18  8.2433583390045202e-19  -4.6667639648303270e-20  1.7277524755031583e-21  -3.3241013589081363e-23  -7.4844050125855427e-25  1.0100223050625627e-25  -5.0588338683863177e-27  1.4956988389656593e-28  -9.9382567502295824e-31  -1.9012550688643905e-31  1.4187639637537466e-32  -6.2323737227671871e-34  1.8373957751448787e-35  -2.4551961969936516e-37  -1.0702807125602325e-38  9.8244658083365920e-40  -4.4490076991115276e-41  1.3689733965043779e-42  -2.6053025531636723e-44  2.9082848669602933e-47  1.5643269936587003e-47  -1.9366078391007351e-49  -3.6509673498364364e-50  3.1080713680199255e-51  -1.4217655841517337e-52  3.8115498529814951e-54  -2.0345914235990492e-57  -6.1992071654793515e-57  3.8804548309164379e-58  -1.3689269073169884e-59  1.9097691860012603e-61  1.2139039808095959e-62  -1.1530783873339546e-63  5.5600554647537884e-65  -1.6961066368048808e-66  1.6552034878889396e-68  1.8523779893393732e-69  -1.5539034222068201e-70  7.4685042264027670e-72  -2.5041270216104978e-73  4.8977721048075380e-75  5.9566453415289327e-77  -1.0926428564112620e-77  5.9502927279257862e-79  -2.1039223301476303e-80  4.3530283595112674e-82  3.8590111318730940e-84  -8.8142600951968215e-85  4.9266767680567628e-86  -1.7798456475485252e-87  4.2175193391272548e-89  3.5884941467763985e-91  -9.1722255110414986e-13  2.6839423800783230e-14  -2.9477388480598534e-12  -8.3783309573384874e-11  -1.4538055405179505e-11  -4.2588092284833806e-16  4.9281439631883223e-15  1.8453949994836296e-17  6.9605230008079105e-19  -1.5993664451523150e-19  1.3061648544780009e-20  -7.1314482528850905e-22  2.8169343346081461e-23  -7.2732270926524934e-25  2.4492691909054589e-27  9.7900949289650419e-28  -6.4396549202669236e-29  2.4013921476733735e-30  -4.1676159260606073e-32  -1.6646979561526879e-33  2.0018636904757603e-34  -1.1647337047117028e-35  5.0630671560392875e-37  -1.7887282373900391e-38  5.2615710562533851e-40  -1.3079093187060292e-41  2.9492594526445608e-43  -7.6767688811336173e-45  2.8078574376232686e-46  -1.0681463595255835e-47  2.4963832631485693e-49  5.1321365430529648e-51  -9.4264653928238262e-52  5.8204443888693222e-53  -2.2373260257367136e-54  4.0169496664620293e-56  1.7969179212578816e-57  -2.2237582408749051e-58  1.3344125697385740e-59  -5.8085052796683755e-61  1.9018842388736664e-62  -4.0407486054865476e-64  -6.0394844820352839e-67  5.6047331316535924e-67  -3.1410449044510560e-68  1.0316169848658278e-69  -1.4365396296724767e-71  -7.4274494070613321e-73  7.0668952666402798e-74  -3.3805764863374947e-75  1.0800480128616471e-76  -1.8107670937638993e-78  -4.1424893609639704e-80  4.8982057909383869e-81  -2.2351091577474333e-82  5.6776707117902795e-84  2.0955240403781894e-86  -1.1464038144761038e-86  7.6258593345077379e-88  -6.4766262863126973e-89  7.7293843432579463e-14  -5.8372666072155830e-15  4.3040759108817843e-13  -1.7957563796686907e-11  9.1666105380799289e-12  1.2177842026983639e-13  2.5668686023804505e-12  -9.5626112866440274e-14  2.2171240904127522e-15  1.1171998241959343e-17  -4.3710725057077123e-18  8.5804962111616425e-20  1.9932228078218604e-20  -2.5814489708670594e-21  1.8906756015674713e-22  -1.0117537051184971e-23  4.1310937844403856e-25  -1.1975287906581354e-26  1.3480754302343644e-28  1.0693560830720941e-29  -9.5002255683144866e-31  4.7213878730891952e-32  -1.6997237341653251e-33  4.3092583856871589e-35  -4.7329401061259087e-37  -2.2157027927775015e-38  1.6742278418609631e-39  -6.2420253786810611e-41  1.4659552519966180e-42  -1.9323666104272151e-44  4.2345478799963364e-46  -6.2630111738764993e-47  5.5391240205447051e-48  -3.0408912719811359e-49  1.0638850485475379e-50  -1.1961054229813662e-52  -1.4756351090523943e-53  1.4085645740585483e-54  -7.8115578628415740e-56  3.1798821854267945e-57  -9.3079169004654763e-59  1.2933786830956255e-60  5.6657923704141119e-62  -5.6381866541529631e-63  2.8067471396980294e-64  -9.8127867480302910e-66  2.2693241856007201e-67  -9.8793680895025121e-70  -2.1633068805550186e-70  1.2674788184193127e-71  -3.9115139345202024e-73  3.3894163985670513e-75  4.0812425392571454e-76  -3.0016872056943746e-77  1.1805113300770576e-78  -2.4031284976724531e-80  -4.6852562729222799e-82  7.2248879703275928e-83  -4.0106662494014639e-84  1.4672130593293455e-85  -3.3973067259187849e-87  -4.3257377651262935e-89  -5.2425753653023776e-15  6.4439523105106067e-16  -1.6601068459274829e-14  1.5868477446583753e-12  4.5931020574297511e-12  -5.6577377370322877e-13  -2.8786757898321890e-13  2.3224827362443922e-14  -1.0742503205762785e-15  3.1540264602014218e-17  -2.7776719975105734e-19  -6.7040895851771582e-21  -2.7245105590125943e-21  4.7370902896631722e-22  -4.3323779841901213e-23  2.8758173106703257e-24  -1.5177182975250885e-25  6.5546161931906097e-27  -2.3002666489498207e-28  6.2270451098145577e-30  -1.0932513365627019e-31  3.4803421956191813e-34  9.7205754493957117e-36  4.8603160249354910e-36  -5.7000403739465871e-37  3.7998083759814491e-38  -1.8596771957592785e-39  7.0441583826889368e-41  -1.9793258189812963e-42  3.0975841728802815e-44  5.1090197084379991e-46  -5.5193384041444363e-47  1.6432709370669008e-48  2.4197057342161894e-50  -5.6949082935109897e-51  3.8035783693701478e-52  -1.7177630377891350e-53  5.6040950836486552e-55  -1.0866042145989613e-56  -1.1529156553201781e-58  2.2021056325395829e-59  -1.1499637160538274e-60  3.6872284877046718e-62  -5.1144230955059625e-64  -2.5519106950140719e-65  2.4338750423263402e-66  -1.1696899825652362e-67  3.8456099502670973e-69  -7.6637040676954616e-71  -2.9904225110812534e-73  9.8853966712042841e-74  -4.1553039301961477e-75  4.8167030557623867e-77  5.4838626562878433e-78  -4.8693591185902812e-79  2.4254329467363090e-80  -8.3927285405790486e-82  1.7542487106153293e-83  1.0999344876529324e-85  -3.0840398635339319e-86  3.3090848130698345e-87  4.7157269120619948e-16  -6.3527740879305318e-17  -2.0292582674614737e-15  -3.9487860706685603e-14  -4.2894878916130458e-13  -5.8698282912081581e-13  9.1377998729944373e-14  3.4419884666795783e-14  -4.1058014201073998e-15  2.5248569692062300e-16  -9.7013696298905134e-18  1.5304791037186676e-19  6.6985968354275325e-21  -2.9973284600434583e-22  -3.8264412159242160e-23  6.3715388585499059e-24  -5.3575096419424477e-25  3.2256398036496863e-26  -1.4759494467195739e-27  4.8168289564077140e-29  -6.4266410571493609e-31  -5.0647250051753671e-32  5.1987476499293502e-33  -2.9445615025923200e-34  1.2110852267699774e-35  -3.5042945697513908e-37  3.9595465138627162e-39  3.1159751878762706e-40  -2.7884308321350323e-41  1.3915306766947958e-42  -4.9479863822014024e-44  1.1387245206441954e-45  -1.7170508569476688e-49  -1.6565539641722161e-48  1.0542523628886266e-49  -4.2839376012481426e-51  1.2057735728125008e-52  -1.6571970891122054e-54  -5.3530944028061403e-56  4.9330362967278519e-57  -1.9967764277758670e-58  4.4359127895610240e-60  2.4718133639812082e-62  -7.4148550298591777e-63  3.6960620036828150e-64  -9.2874232494436979e-66  -7.3797545086601517e-68  2.1495910467215781e-68  -1.2974917173220285e-69  4.9561935114229211e-71  -1.1355606133368471e-72  -4.3397079757823502e-75  1.9847440492971459e-75  -1.1631458184496336e-76  4.2079591798019470e-78  -8.6072970587155845e-80  -8.9990742331581295e-82  1.7691868867560770e-82  -9.1189673837049436e-84  2.8619951030485834e-85  -6.3409165971851744e-87  -5.0306934886606374e-17  1.3847915948611853e-17  2.2832018426310654e-16  1.7329990311952552e-15  2.8854060154018780e-14  1.3120811494237465e-13  1.2913197367342924e-13  -2.6409992765244107e-14  -7.6426995476708292e-15  1.3402477907711985e-15  -1.1660302598608324e-16  7.0339682674740704e-18  -3.1468038496286025e-19  1.0667881262979067e-20  -3.4791062390937577e-22  2.4019093574963349e-23  -2.6175643237508327e-24  2.4301266827228215e-25  -1.8016575534069662e-26  1.1004834998217149e-27  -5.6570708736127154e-29  2.4503446892232452e-30  -8.6907408411673039e-32  2.2665494165927942e-33  -2.1787610389815451e-35  -1.9401074706797712e-36  1.5713920115957139e-37  -7.0604955122307525e-39  2.0334448359986371e-40  -1.4749103072400726e-42  -2.6338403689242086e-43  2.1575918671314391e-44  -1.0946389491462553e-45  4.2211198205839827e-47  -1.2433867297969096e-48  2.3595064183047293e-50  7.4605857013919585e-53  -3.0324125330253532e-53  1.5323492292677422e-54  -4.6070826910916042e-56  6.2631175380950770e-58  2.1651936311746611e-59  -1.8249285451272800e-60  6.3132798348583421e-62  -6.8626952288636100e-64  -5.8580740046422081e-65  4.3293808947343821e-66  -1.4620675831452045e-67  5.9549392065337322e-70  2.7369100225232533e-70  -2.1588972187560200e-71  1.0692950161654910e-72  -3.9101331292505163e-74  1.0115675946410919e-75  -1.1279821586075490e-77  -5.4146725210149753e-79  4.0042979420192730e-80  -1.2964342892209238e-81  8.1566208830801606e-84  1.7805773997842330e-84  -2.1436480144527749e-85  </DataArray> 
</PointData> 
</Piece>
</UnstructuredGrid>
</VTKFile>