<?xml version="1.0"?>
<VTKFile type="UnstructuredGrid"  version="0.1"  >
<UnstructuredGrid>
<Piece  NumberOfPoints="670" NumberOfCells="1192">
<Points>
<DataArray  type="Float64"  NumberOfComponents="3"  format="ascii">0 0 0  0.04 -1.31357e-10 0  0.0400579 0.0400582 0  0 0.04 0  0.08 -2.62713e-10 0  0.080123 0.0401093 0  0.12 -3.9407e-10 0  0.120183 0.040127 0  0.16 -5.25427e-10 0  0.160176 0.0400597 0  0.2 -6.56784e-10 0  0.199997 0.0399142 0  0.24 -7.8814e-10 0  0.239816 0.0400642 0  0.28 -9.19497e-10 0  0.279804 0.0401377 0  0.32 -1.05085e-09 0  0.319855 0.0401297 0  0.36 -1.18221e-09 0  0.359906 0.0400945 0  0.4 -1.31357e-09 0  0.399941 0.0400609 0  0.44 -1.44492e-09 0  0.439962 0.0400367 0  0.48 -1.57628e-09 0  0.479975 0.0400214 0  0.52 -1.70764e-09 0  0.519983 0.0400122 0  0.5600000000000001 -1.83899e-09 0  0.559987 0.0400069 0  0.6 -1.97035e-09 0  0.59999 0.040004 0  0.64 -2.10171e-09 0  0.639993 0.0400023 0  0.68 -2.23306e-09 0  0.679994 0.0400013 0  0.72 -2.36442e-09 0  0.7199950000000001 0.0400008 0  0.76 -2.49578e-09 0  0.759996 0.0400005 0  0.8 -2.62713e-09 0  0.799997 0.0400002 0  0.84 -2.75849e-09 0  0.839997 0.0400001 0  0.88 -2.88985e-09 0  0.8799979999999999 0.04 0  0.92 -3.0212e-09 0  0.919999 0.0399999 0  0.96 -3.15256e-09 0  0.959999 0.0399998 0  1 -3.28392e-09 0  1 0.0399998 0  1.04 -3.41527e-09 0  1.04 0.0399998 0  1.08 -3.54663e-09 0  1.08 0.0399998 0  1.12 -3.67799e-09 0  1.12 0.0399998 0  1.16 -3.80934e-09 0  1.16 0.0399999 0  1.2 -3.9407e-09 0  1.2 0.04 0  1.24 -4.07206e-09 0  1.24 0.04 0  1.28 -4.20341e-09 0  1.28 0.0400001 0  1.32 -4.33477e-09 0  1.32 0.0400001 0  1.36 -4.46613e-09 0  1.36 0.04 0  1.4 -4.59748e-09 0  1.4 0.04 0  1.44 -4.72884e-09 0  1.44 0.04 0  1.48 -4.8602e-09 0  1.48 0.04 0  1.52 -4.99156e-09 0  1.52 0.04 0  1.56 -5.12291e-09 0  1.56 0.04 0  1.6 -5.25427e-09 0  1.6 0.0400001 0  1.64 -5.38563e-09 0  1.64 0.0400001 0  1.68 -5.51698e-09 0  1.68 0.04 0  1.72 -5.64834e-09 0  1.72 0.04 0  1.76 -5.7797e-09 0  1.76 0.04 0  1.8 -5.91105e-09 0  1.8 0.04 0  1.84 -6.04241e-09 0  1.84 0.04 0  1.88 -6.17377e-09 0  1.88 0.0400001 0  1.92 -6.30512e-09 0  1.92 0.0400001 0  1.96 -6.43648e-09 0  1.96 0.0400001 0  2 -6.56784e-09 0  2 0.0400001 0  2.04 -6.69919e-09 0  2.04 0.0400001 0  2.08 -6.83055e-09 0  2.08 0.04 0  2.12 -6.96191e-09 0  2.12 0.04 0  2.16 -7.09326e-09 0  2.16 0.0400001 0  2.2 -7.22462e-09 0  2.2 0.04 0  2.24 -7.35598e-09 0  2.24 0.04 0  2.28 -7.48733e-09 0  2.28 0.0399999 0  2.32 -7.618690000000001e-09 0  2.32 0.04 0  2.36 -7.750049999999999e-09 0  2.36 0.04 0  2.4 -7.8814e-09 0  2.4 0.04 0  0.0401088 0.0801235 0  0 0.08 0  0.0802509 0.0802518 0  0.120434 0.0803392 0  0.160522 0.0801977 0  0.199995 0.0795328 0  0.239464 0.0802049 0  0.279544 0.08035689999999999 0  0.319711 0.0802867 0  0.359828 0.08018740000000001 0  0.399896 0.0801123 0  0.439933 0.0800646 0  0.479955 0.0800365 0  0.519968 0.08002049999999999 0  0.559976 0.0800116 0  0.599982 0.0800066 0  0.6399860000000001 0.0800039 0  0.679989 0.0800023 0  0.719991 0.0800014 0  0.759992 0.0800008 0  0.799994 0.0800004 0  0.839995 0.08000019999999999 0  0.879996 0.0799999 0  0.919997 0.07999970000000001 0  0.959999 0.0799996 0  1 0.0799995 0  1.04 0.0799995 0  1.08 0.0799996 0  1.12 0.07999970000000001 0  1.16 0.0799998 0  1.2 0.08 0  1.24 0.0800001 0  1.28 0.0800001 0  1.32 0.0800001 0  1.36 0.08 0  1.4 0.0799999 0  1.44 0.0799999 0  1.48 0.0799999 0  1.52 0.0799999 0  1.56 0.08 0  1.6 0.0800001 0  1.64 0.0800001 0  1.68 0.08 0  1.72 0.0799999 0  1.76 0.0799999 0  1.8 0.0799999 0  1.84 0.0799999 0  1.88 0.08 0  1.92 0.0800001 0  1.96 0.0800001 0  2 0.0800001 0  2.04 0.08 0  2.08 0.0799999 0  2.12 0.0799999 0  2.16 0.08 0  2.2 0.08 0  2.24 0.0799999 0  2.28 0.0799998 0  2.32 0.0799999 0  2.36 0.0799999 0  2.4 0.08 0  0.0401262 0.120184 0  0 0.12 0  0.0803378 0.120435 0  0.120779 0.12078 0  0.161485 0.120859 0  0.199996 0.117814 0  0.238503 0.120866 0  0.279195 0.120798 0  0.319616 0.120473 0  0.359799 0.120256 0  0.39988 0.120136 0  0.439921 0.120073 0  0.479944 0.120039 0  0.519958 0.120022 0  0.5599690000000001 0.120012 0  0.599976 0.120007 0  0.639981 0.120004 0  0.679985 0.120002 0  0.719987 0.120002 0  0.7599900000000001 0.120001 0  0.799991 0.12 0  0.839993 0.12 0  0.879995 0.12 0  0.919996 0.12 0  0.959998 0.119999 0  1 0.119999 0  1.04 0.119999 0  1.08 0.119999 0  1.12 0.12 0  1.16 0.12 0  1.2 0.12 0  1.24 0.12 0  1.28 0.12 0  1.32 0.12 0  1.36 0.12 0  1.4 0.12 0  1.44 0.12 0  1.48 0.12 0  1.52 0.12 0  1.56 0.12 0  1.6 0.12 0  1.64 0.12 0  1.68 0.12 0  1.72 0.12 0  1.76 0.12 0  1.8 0.12 0  1.84 0.12 0  1.88 0.12 0  1.92 0.12 0  1.96 0.12 0  2 0.12 0  2.04 0.12 0  2.08 0.12 0  2.12 0.12 0  2.16 0.12 0  2.2 0.12 0  2.24 0.12 0  2.28 0.12 0  2.32 0.12 0  2.36 0.12 0  2.4 0.12 0  0.0400582 0.160177 0  0 0.16 0  0.0801954 0.160525 0  0.120857 0.161488 0  0.164645 0.164645 0  0.2 0.15 0  0.235355 0.164645 0  0.279119 0.161498 0  0.319759 0.16055 0  0.359874 0.160228 0  0.399906 0.160104 0  0.439925 0.160051 0  0.479941 0.160027 0  0.519954 0.160014 0  0.559964 0.160008 0  0.5999719999999999 0.160005 0  0.639978 0.160003 0  0.679982 0.160002 0  0.719985 0.160001 0  0.759988 0.160001 0  0.79999 0.16 0  0.839992 0.16 0  0.8799940000000001 0.16 0  0.919996 0.159999 0  0.959998 0.159999 0  1 0.159999 0  1.04 0.159999 0  1.08 0.159999 0  1.12 0.16 0  1.16 0.16 0  1.2 0.16 0  1.24 0.16 0  1.28 0.16 0  1.32 0.16 0  1.36 0.16 0  1.4 0.16 0  1.44 0.16 0  1.48 0.16 0  1.52 0.16 0  1.56 0.16 0  1.6 0.16 0  1.64 0.16 0  1.68 0.16 0  1.72 0.16 0  1.76 0.16 0  1.8 0.16 0  1.84 0.16 0  1.88 0.16 0  1.92 0.16 0  1.96 0.16 0  2 0.16 0  2.04 0.16 0  2.08 0.16 0  2.12 0.16 0  2.16 0.16 0  2.2 0.16 0  2.24 0.16 0  2.28 0.16 0  2.32 0.16 0  2.36 0.16 0  2.4 0.16 0  0.0399111 0.2 0  0 0.2 0  0.0795281 0.2 0  0.117811 0.2 0  0.15 0.2 0  0.282167 0.2 0  0.25 0.2 0  0.320429 0.2 0  0.36003 0.200001 0  0.399944 0.200001 0  0.439934 0.200001 0  0.479942 0.200001 0  0.519953 0.200001 0  0.559963 0.200001 0  0.59997 0.200001 0  0.639976 0.200001 0  0.6799809999999999 0.200001 0  0.719984 0.200001 0  0.759987 0.200001 0  0.799989 0.2 0  0.839991 0.2 0  0.879993 0.2 0  0.919996 0.199999 0  0.959998 0.199999 0  1 0.199999 0  1.04 0.199999 0  1.08 0.199999 0  1.12 0.2 0  1.16 0.2 0  1.2 0.2 0  1.24 0.2 0  1.28 0.2 0  1.32 0.2 0  1.36 0.2 0  1.4 0.2 0  1.44 0.2 0  1.48 0.2 0  1.52 0.2 0  1.56 0.2 0  1.6 0.2 0  1.64 0.2 0  1.68 0.2 0  1.72 0.2 0  1.76 0.2 0  1.8 0.2 0  1.84 0.2 0  1.88 0.2 0  1.92 0.2 0  1.96 0.2 0  2 0.2 0  2.04 0.2 0  2.08 0.2 0  2.12 0.2 0  2.16 0.2 0  2.2 0.2 0  2.24 0.2 0  2.28 0.2 0  2.32 0.2 0  2.36 0.2 0  2.4 0.2 0  0.0400582 0.239823 0  0 0.24 0  0.0801953 0.239475 0  0.120857 0.238513 0  0.164645 0.235355 0  0.279119 0.238502 0  0.235355 0.235355 0  0.319759 0.239451 0  0.359873 0.239774 0  0.399905 0.239898 0  0.439925 0.239951 0  0.479941 0.239976 0  0.519954 0.239988 0  0.559964 0.239994 0  0.5999719999999999 0.239997 0  0.639977 0.239999 0  0.679982 0.24 0  0.719985 0.24 0  0.759987 0.24 0  0.79999 0.24 0  0.839992 0.24 0  0.8799940000000001 0.24 0  0.919996 0.239999 0  0.959998 0.239999 0  1 0.239999 0  1.04 0.239999 0  1.08 0.239999 0  1.12 0.24 0  1.16 0.24 0  1.2 0.24 0  1.24 0.24 0  1.28 0.24 0  1.32 0.24 0  1.36 0.24 0  1.4 0.24 0  1.44 0.24 0  1.48 0.24 0  1.52 0.24 0  1.56 0.24 0  1.6 0.24 0  1.64 0.24 0  1.68 0.24 0  1.72 0.24 0  1.76 0.24 0  1.8 0.24 0  1.84 0.24 0  1.88 0.24 0  1.92 0.24 0  1.96 0.24 0  2 0.24 0  2.04 0.24 0  2.08 0.24 0  2.12 0.24 0  2.16 0.24 0  2.2 0.24 0  2.24 0.24 0  2.28 0.24 0  2.32 0.24 0  2.36 0.24 0  2.4 0.24 0  0.0401261 0.279816 0  0 0.28 0  0.0803376 0.279565 0  0.120778 0.27922 0  0.161485 0.279141 0  0.2 0.25 0  0.199996 0.282186 0  0.238503 0.279135 0  0.279195 0.279202 0  0.319616 0.279528 0  0.359799 0.279745 0  0.39988 0.279865 0  0.43992 0.279929 0  0.479944 0.279962 0  0.519958 0.27998 0  0.559968 0.27999 0  0.599976 0.279995 0  0.639981 0.279998 0  0.679984 0.279999 0  0.719987 0.28 0  0.759989 0.28 0  0.799991 0.28 0  0.839993 0.28 0  0.879995 0.28 0  0.919997 0.279999 0  0.959998 0.279999 0  1 0.279999 0  1.04 0.279999 0  1.08 0.28 0  1.12 0.28 0  1.16 0.28 0  1.2 0.28 0  1.24 0.28 0  1.28 0.28 0  1.32 0.28 0  1.36 0.28 0  1.4 0.28 0  1.44 0.28 0  1.48 0.28 0  1.52 0.28 0  1.56 0.28 0  1.6 0.28 0  1.64 0.28 0  1.68 0.28 0  1.72 0.28 0  1.76 0.28 0  1.8 0.28 0  1.84 0.28 0  1.88 0.28 0  1.92 0.28 0  1.96 0.28 0  2 0.28 0  2.04 0.28 0  2.08 0.28 0  2.12 0.28 0  2.16 0.28 0  2.2 0.28 0  2.24 0.28 0  2.28 0.28 0  2.32 0.28 0  2.36 0.28 0  2.4 0.28 0  0.0401086 0.319877 0  0 0.32 0  0.08025060000000001 0.319748 0  0.120433 0.319661 0  0.160522 0.319802 0  0.199995 0.320467 0  0.239464 0.319795 0  0.279543 0.319643 0  0.31971 0.319714 0  0.359828 0.319813 0  0.399895 0.319889 0  0.439933 0.319937 0  0.479955 0.319965 0  0.519968 0.319981 0  0.559976 0.31999 0  0.599982 0.319995 0  0.6399860000000001 0.319998 0  0.679989 0.319999 0  0.719991 0.32 0  0.759992 0.32 0  0.799994 0.32 0  0.839995 0.32 0  0.879996 0.32 0  0.919998 0.32 0  0.959999 0.32 0  1 0.32 0  1.04 0.32 0  1.08 0.32 0  1.12 0.32 0  1.16 0.32 0  1.2 0.32 0  1.24 0.32 0  1.28 0.32 0  1.32 0.32 0  1.36 0.32 0  1.4 0.32 0  1.44 0.32 0  1.48 0.32 0  1.52 0.32 0  1.56 0.32 0  1.6 0.32 0  1.64 0.32 0  1.68 0.32 0  1.72 0.32 0  1.76 0.32 0  1.8 0.32 0  1.84 0.32 0  1.88 0.32 0  1.92 0.32 0  1.96 0.32 0  2 0.32 0  2.04 0.32 0  2.08 0.32 0  2.12 0.32 0  2.16 0.32 0  2.2 0.32 0  2.24 0.32 0  2.28 0.32 0  2.32 0.32 0  2.36 0.32 0  2.4 0.32 0  0.0400579 0.359942 0  0 0.36 0  0.0801229 0.359891 0  0.120183 0.359873 0  0.160175 0.35994 0  0.199997 0.360086 0  0.239816 0.359936 0  0.279804 0.359862 0  0.319855 0.359871 0  0.359906 0.359906 0  0.399941 0.35994 0  0.439962 0.359964 0  0.479975 0.359979 0  0.5199820000000001 0.359989 0  0.559987 0.359994 0  0.59999 0.359997 0  0.639993 0.359998 0  0.679994 0.359999 0  0.7199950000000001 0.36 0  0.759996 0.36 0  0.799997 0.36 0  0.839997 0.36 0  0.8799979999999999 0.36 0  0
[...]
<PointData  Scalars="f_10391-2"> 
<DataArray  type="Float64"  Name="f_10391-2"  format="ascii">3.4605412518695091e-04  3.4520128855302767e-04  3.6281263222505980e-04  3.6377016068657008e-04  3.2987195931625520e-04  3.4945179540038322e-04  2.9172526861709445e-04  3.0898042025000243e-04  2.3705950690956353e-04  2.4822611895974802e-04  1.8045287274687298e-04  1.8633788863348233e-04  1.3141149154709912e-04  1.3409997533343133e-04  9.3103888814971404e-05  9.4263307271655049e-05  6.4670286243692122e-05  6.5182860457337570e-05  4.4121996251733643e-05  4.4359517085753847e-05  2.9552087218112287e-05  2.9662455450465142e-05  1.9409267215564136e-05  1.9456158713040280e-05  1.2486666885529194e-05  1.2501339532231965e-05  7.8617092423802576e-06  7.8611494839450347e-06  4.8408262503842519e-06  4.8343359730993853e-06  2.9135161557222188e-06  2.9057281415250328e-06  1.7132521955884883e-06  1.7062440698427615e-06  9.8395662983621076e-07  9.7847168030344151e-07  5.5176632964844289e-07  5.4781271726421344e-07  3.0203287430761278e-07  2.9935098535797906e-07  1.6135617143571827e-07  1.5962451214864865e-07  8.4115118254204223e-08  8.3045166640609966e-08  4.2781499332965146e-08  4.2144288157796794e-08  2.1226269224667241e-08  2.0859988470229175e-08  1.0272426928836110e-08  1.0069051157636366e-08  4.8484749529542903e-09  4.7390019860813909e-09  2.2316131971671745e-09  2.1745370956932367e-09  1.0015325053925926e-09  9.7266148170169251e-10  4.3822076190886871e-10  4.2404383306015392e-10  1.8691765328003899e-10  1.8015666367407847e-10  7.7711028163671896e-11  7.4578549049490499e-11  3.1487117429549440e-11  3.0076794773184251e-11  1.2432023013412826e-11  1.1814879783012313e-11  4.7824142859060965e-12  4.5199051846625919e-12  1.7921905942720027e-12  1.6836408840150709e-12  6.5416235032899398e-13  6.1052422248996923e-13  2.3253110394764425e-13  2.1547554354132504e-13  8.0481809586654105e-14  7.4001036851750288e-14  2.7118128851662019e-14  2.4724056865600432e-14  8.8938161107067718e-15  8.0340588155739141e-15  2.8385807230275278e-15  2.5384442370251009e-15  8.8148192437838937e-16  7.7963947500228541e-16  2.6627799204799683e-16  2.3269175594105640e-16  7.8230104652964554e-17  6.7466151616308959e-17  2.2347632366459799e-17  1.8995619468726111e-17  6.2059045439950450e-18  5.1917534839102681e-18  1.6748873953514974e-18  1.3768330881238893e-18  4.3919529798836132e-19  3.5411815260218825e-19  1.1186577019061322e-19  8.8284267460158094e-20  2.7667580156741497e-20  2.1321833250567560e-20  6.6425605465380179e-21  4.9850785760561157e-21  1.5475090185553404e-21  1.1273996362765598e-21  3.4969624668458113e-22  2.4639613959767565e-22  7.6615721224907762e-23  5.1981867036238790e-23  1.6266784448421840e-23  1.0571572537414208e-23  3.3450963306009101e-24  2.0690700121816769e-24  6.6591905407280117e-25  3.8897201002483055e-25  1.2834695527284561e-25  7.0145353553659556e-26  2.4066000932456625e-26  1.2216509204202011e-26  4.6368080889186452e-27  2.2304975897526073e-27  1.8658752783472776e-27  8.4005654640227555e-28  4.0440900983996245e-04  4.0219768529369833e-04  3.9762184380915636e-04  3.5401577361661023e-04  2.7857251265782596e-04  2.0198737487259923e-04  1.4072493831831332e-04  9.7039558246908542e-05  6.6523485014530234e-05  4.5097745441208861e-05  3.0088670695597775e-05  1.9699966087519325e-05  1.2636125513266137e-05  7.9325956094077970e-06  4.8703765093484941e-06  2.9228826076196420e-06  1.7138437277559732e-06  9.8146346879130356e-07  5.4875773692689899e-07  2.9948337559063183e-07  1.5948998163443513e-07  8.2868262580608523e-08  4.2000202418600933e-08  2.0761155536235316e-08  1.0007227698850073e-08  4.7031689409193213e-09  2.1548657972940316e-09  9.6234508710632404e-10  4.1884977555410894e-10  1.7763758631680377e-10  7.3399113213196831e-11  2.9542891991900853e-11  1.1580963412625509e-11  4.4206430652103633e-12  1.6428227880288142e-12  5.9425345198886792e-13  2.0918733499729553e-13  7.1644689467625505e-14  2.3867949363361611e-14  7.7325190022002718e-15  2.4355011050870642e-15  7.4558688056159178e-16  2.2178148935675856e-16  6.4082096195189023e-17  1.7980107910241863e-17  4.8971490644607804e-18  1.2942916453557920e-18  3.3181117690019414e-19  8.2478742428406352e-20  1.9869913599187039e-20  4.6371647010681165e-21  1.0478530559098881e-21  2.2914955766147468e-22  4.8470861139216710e-23  9.9119562364535744e-24  1.9586277476255826e-24  3.7390406240904890e-25  6.9030797462686361e-26  1.2435694763640150e-26  2.3491615770114622e-27  8.9077943869135291e-28  4.4584438768868225e-04  4.4213854618891919e-04  4.4397025433617985e-04  4.0232708920477807e-04  3.1652146439618356e-04  2.1983499805809889e-04  1.4579602537243271e-04  9.8720111038667075e-05  6.7549277368212721e-05  4.5832681178044896e-05  3.0580759032421099e-05  2.0002958392120903e-05  1.2811116207584549e-05  8.0286270065323539e-06  4.9206891592200874e-06  2.9482074575992989e-06  1.7260335652726781e-06  9.8703089880575798e-07  5.5114187895640013e-07  3.0040026467736518e-07  1.5979009018977494e-07  8.2926825607205242e-08  4.1981231829370809e-08  2.0728127766450017e-08  9.9798096528613720e-09  4.6846892977726463e-09  2.1438012331415764e-09  9.5620263075961133e-10  4.1563182283885877e-10  1.7603120016734301e-10  7.2630663522947215e-11  2.9189298838702715e-11  1.1424070187886675e-11  4.3533966612230816e-12  1.6149484094004228e-12  5.8307007333262048e-13  2.0484199915904245e-13  7.0008944609482579e-14  2.3271244615748637e-14  7.5215517837626778e-15  2.3632084643221388e-15  7.2157678790788987e-16  2.1405321336034434e-16  6.1671626316648038e-17  1.7251698519303464e-17  4.6839404504832569e-18  1.2338568958171273e-18  3.1522647772446232e-19  7.8073671665725963e-20  1.8737740916668083e-20  4.3556481764005735e-21  9.8013948662511220e-22  2.1339327681461729e-22  4.4923038851280638e-23  9.1383795739305920e-24  1.7950698503900001e-24  3.4028846793790549e-25  6.2280050921180812e-26  1.1090113279529970e-26  2.0594171465549087e-27  7.6265799990452337e-28  4.7222995709060572e-04  4.6964296457143064e-04  4.6977323810590109e-04  4.3719983142960874e-04  3.6437080258744348e-04  2.2770145899565653e-04  1.3538474887961468e-04  9.5535295496684656e-05  6.7164536318915855e-05  4.6136173287357621e-05  3.0917317029462404e-05  2.0238196812817693e-05  1.2952145915110970e-05  8.1066304501658767e-06  4.9616217442152101e-06  2.9686416610538578e-06  1.7357394318581832e-06  9.9138829621002208e-07  5.5294141092845357e-07  3.0105736815119459e-07  1.5997121329429059e-07  8.2936430435658698e-08  4.1943715247797762e-08  2.0688200395776254e-08  9.9502688738704872e-09  4.6658354471539758e-09  2.1328119373557172e-09  9.5020205078465579e-10  4.1252233220075923e-10  1.7449102917538907e-10  7.1897946747984953e-11  2.8853479701634523e-11  1.1275489342394469e-11  4.2898449447249310e-12  1.5886432597405318e-12  5.7252597986950007e-13  2.0074702279513539e-13  6.8467520971920094e-14  2.2708749032651735e-14  7.3225307116805445e-15  2.2949287147974097e-15  6.9886237937220245e-16  2.0672655350496411e-16  5.9380413839527827e-17  1.6557109190690292e-17  4.4798445312216783e-18  1.1757389802879607e-18  2.9919140654968883e-19  7.3787869411743873e-20  1.7628307929022050e-20  4.0775622612496945e-21  9.1266002066207492e-22  1.9754498537433971e-22  4.1321249758737130e-23  8.3464332100649160e-24  1.6266273854893586e-24  3.0563066481739213e-25  5.5372835767672871e-26  9.7442084715421299e-27  1.7835197009033097e-27  6.5137918663401461e-28  4.8318052313979585e-04  4.8093755198003407e-04  4.7941788779578344e-04  4.5416784656387646e-04  4.2141165760885562e-04  8.9107208288507833e-05  1.0784628129103515e-04  6.6075460835678557e-05  4.6111001822730883e-05  3.1034030821505112e-05  2.0330207206052511e-05  1.3006654772329220e-05  8.1352672471633666e-06  4.9753614061795157e-06  2.9746506193610704e-06  1.7379724729352277e-06  9.9193444717511887e-07  5.5285120535282105e-07  3.0079207868490253e-07  1.5971368108346655e-07  8.2740599742552440e-08  4.1811859900587322e-08  2.0605774489576087e-08  9.9019723480047314e-09  4.6388890106229557e-09  2.1184028949611331e-09  9.4278869463582038e-10  4.0884274851664188e-10  1.7272610088190559e-10  7.1078806044231206e-11  2.8485280971716048e-11  1.1115100046337918e-11  4.2221064993191476e-12  1.5608972412486020e-12  5.6150135725481841e-13  1.9649709389886064e-13  6.6877934915019196e-14  2.2131881345565223e-14  7.1194149529990221e-15  2.2255452645633877e-15  6.7587085587842592e-16  1.9933697336761553e-16  5.7077169732780258e-17  1.5861051103600305e-17  4.2759325362747912e-18  1.1178459554947794e-18  2.8326644708967168e-19  6.9544895845768896e-20  1.6533697950459464e-20  3.8042323686375870e-21  8.4662434614606803e-22  1.8211599993535774e-22  3.7836741798318815e-23  7.5862135491898062e-24  1.4665054984382986e-24  2.7308979140499162e-25  4.8988659538278734e-26  8.5249365645012914e-27  1.5400209531103434e-27  5.5588658672622379e-28  4.7649829131311757e-04  4.7264011220995186e-04  4.7143736650969857e-04  4.3171641179026287e-04  3.5885324969419378e-04  9.5625168295388307e-05  1.3627379041514934e-04  6.7391988799932686e-05  4.6284156430488090e-05  3.0985812618806184e-05  2.0262239337423788e-05  1.2955846815113537e-05  8.1023569120781270e-06  4.9551706226998338e-06  2.9624903428040756e-06  1.7307764568312021e-06  9.8769437944111033e-07  5.5037330766946456e-07  2.9936315834450325e-07  1.5889436761422782e-07  8.2279468457092471e-08  4.1556997169626006e-08  2.0468159751534617e-08  9.8290958437436193e-09  4.6011995930525316e-09  2.0993899010390651e-09  9.3344299542819608e-10  4.0436862049826163e-10  1.7064151824095764e-10  7.0133923904045599e-11  2.8068755664759190e-11  1.0936578752387729e-11  4.1477327576170528e-12  1.5307853925375743e-12  5.4965575874703661e-13  1.9197025073336188e-13  6.5197697209445215e-14  2.1526262265168085e-14  6.9074832443791020e-15  2.1535555798126142e-15  6.5213919765642957e-16  1.9174649664061103e-16  5.4722195069262454e-17  1.5152509392260518e-17  4.0692593353527183e-18  1.0594193674980927e-18  2.6726342828092946e-19  6.5299639555978901e-20  1.5443392558273111e-20  3.5332442628035648e-21  7.8147542766289788e-22  1.6697362423862093e-22  3.4436110135274026e-23  6.8487787756056163e-24  1.3121998557192040e-24  2.4195326128592551e-25  4.2927003926416570e-26  7.3773665416006782e-27  1.3137639905696995e-27  4.6823925636296512e-28  4.4740586481958070e-04  4.4204680497960102e-04  4.4478267019656872e-04  4.0032873968315477e-04  3.1531024532798483e-04  2.3089633615148075e-04  2.1812014814235874e-04  1.4701563563535272e-04  9.9498286613761209e-05  6.8011225566144820e-05  4.6070615743275409e-05  3.0684866523489382e-05  2.0037295239442514e-05  1.2812809559820682e-05  8.0176960416099110e-06  4.9068010402547203e-06  2.9354041494277444e-06  1.7158008474752996e-06  9.7951710235693661e-07  5.4592584275720941e-07  2.9696052574583726e-07  1.5760894646069008e-07  8.1596935391014220e-08  4.1198643864772755e-08  2.0282592197174387e-08  9.7347061441474265e-09  4.5539499382819274e-09  2.0762052487542511e-09  9.2230734490560862e-10  3.9914150191412204e-10  1.6824642510381281e-10  6.9063529252930900e-11  2.7602543491822472e-11  1.0738809712157840e-11  4.0660687229273979e-12  1.4979759491327196e-12  5.3683581515341291e-13  1.8710017766578047e-13  6.3399639910079994e-14  2.0881267622635711e-14  6.6827512868734837e-15  2.0775221984693332e-15  6.2716740549551890e-16  1.8378719757178791e-16  5.2260976205980786e-17  1.4414364230427471e-17  3.8546201787364036e-18  9.9892662158567176e-19  2.5074507669460106e-19  6.0931167268721161e-20  1.4324962936618675e-20  3.2561647182859338e-21  7.1508608501381423e-22  1.5159742893975315e-22  3.0995880223382083e-23  6.1057345972611160e-24  1.1573882262581243e-24  2.1086080384686056e-25  3.6905972294030241e-26  6.2454116538966219e-27  1.0937437653651171e-27  3.8440043012332745e-28  3.9954117593197385e-04  3.9666087769307031e-04  3.9515211149364696e-04  3.5613767802518664e-04  2.8231718568586190e-04  2.0359756907030569e-04  1.4211279736049668e-04  9.7845742769242335e-05  6.6992951829572257e-05  4.5337349960471378e-05  3.0188932991772009e-05  1.9724915718386023e-05  1.2626166033029724e-05  7.9099412371313806e-06  4.8461134922609068e-06  2.9017950025959061e-06  1.6973889207135982e-06  9.6950633074263135e-07  5.4052931064338354e-07  2.9407266954079521e-07  1.5607284924467238e-07  8.0788531910823901e-08  4.0777932924156469e-08  2.0066095095683667e-08  9.6249831656193030e-09  4.4993857001562668e-09  2.0495469046247627e-09  9.0955288433611203e-10  3.9317534615898191e-10  1.6552029153427113e-10  6.7848121817668460e-11  2.7074272777121106e-11  1.0515118831147422e-11  3.9738452419721986e-12  1.4609746218167166e-12  5.2239523295480566e-13  1.8162026522961058e-13  6.1378347838324214e-14  2.0156820754906181e-14  6.4305378767222350e-15  1.9922554464118951e-15  5.9918352734557068e-16  1.7487431528824737e-16  4.9506920630470438e-17  1.3589032596654120e-17  3.6148277214970104e-18  9.3140625507423197e-19  2.3232649111828876e-19  5.6065789624864565e-20  1.3080975220207299e-20  2.9484587002868134e-21  6.4149350110903581e-22  1.3458995167289545e-22  2.7200554847262431e-23  5.2885576300695901e-24  9.8777772636151291e-25  1.7695595866512842e-25  3.0380384158216528e-26  5.0301204377185174e-27  8.6259806780814507e-28  2.9864174840421226e-28  3.5643151475276281e-04  3.5788083978435830e-04  3.4605677172102386e-04  3.1198489591452455e-04  2.5341992595553182e-04  1.8944949738047140e-04  1.3579485133560453e-04  9.5125646586485493e-05  6.5613396327900156e-05  4.4547532574798754e-05  2.9716513295887133e-05  1.9443012293839469e-05  1.2460474942154921e-05  7.8141660335185752e-06  4.7914013332653594e-06  2.8708634125531381e-06  1.6799857128668811e-06  9.5978304973739822e-07  5.3511883919744170e-07  2.9107666828020376e-07  1.5443007753831271e-07  7.9897602965407950e-08  4.0300421027318092e-08  1.9814577722102198e-08  9.4947261929096216e-09  4.4333774971687794e-09  2.0167767511124210e-09  8.9366035242039665e-10  3.8565406873341499e-10  1.6205003822789070e-10  6.6288261887773113e-11  2.6391603767869704e-11  1.0224366671317574e-11  3.8533849931408988e-12  1.4124440329547860e-12  5.0338893774947789e-13  1.7438658486117540e-13  5.8703633551055656e-14  1.9196246089741972e-14  6.0955722015051562e-15  1.8788685519015926e-15  5.6193639096959503e-16  1.6300409268823029e-16  4.5838138655523145e-17  1.2489687565541420e-17  3.2955738186861627e-18  8.4158969840478390e-19  2.0785801344574635e-19  4.9613975771043952e-20  1.1435265929282055e-20  2.5426075737315798e-21  5.4479111820352614e-22  1.1234453243138820e-22  2.2264199565017490e-23  4.2329403937507340e-24  7.7048558360291712e-25  1.3395682219058284e-25  2.2209209222582948e-26  3.5356653102416129e-27  5.8818907244368997e-28  2.0116397130188922e-28  3.4022096019208298e-04  3.4486274651340245e-04  3.2692848388517139e-04  2.9421846649586039e-04  2.4163022338914911e-04  1.8338520522404045e-04  1.3280950467126131e-04  9.3665099718615328e-05  6.4836279629282173e-05  4.4100039564879674e-05  2.9445876280675781e-05  1.9275359424912868e-05  1.2355635467519039e-05  7.7482300611353960e-06  4.7499275480313889e-06  2.8448053193520118e-06  1.6637191257593270e-06  9.4970010558971805e-07  5.2895253432352150e-07  2.8736885389837578e-07  1.5224416958058434e-07  7.8635599485568722e-08  3.9589729200439867e-08  1.9424329569689156e-08  9.2859638531687491e-09  4.3245728299724297e-09  1.9615991479788483e-09  8.6644666321042181e-10  3.7260417828375703e-10  1.5596689256763206e-10  6.3532283093718031e-11  2.5178262288660468e-11  9.7053442491989115e-12  3.6376994490163912e-12  1.3253836142227707e-12  4.6926073537027385e-13  1.6139622884356907e-13  5.3903442172014750e-14  1.7474644008553625e-14  5.4964136168887364e-15  1.6765787506689678e-15  4.9569838597224291e-16  1.4197561668270413e-16  3.9367770126982657e-17  1.0560787001575392e-17  2.7386793414579107e-18  6.8594932590725504e-19  1.6577174191984396e-19  3.8609103201250574e-20  8.6543746775099210e-21  1.8639818033128219e-21  3.8499189354381037e-22  7.6068816130100439e-23  1.4333899509727247e-23  2.5654974241106961e-24  4.3377670851145474e-25  6.8774539104098377e-26  1.0136970143638021e-26  1.3990613009293794e-27  2.1700546114940243e-28  7.9080129441696696e-29  </DataArray> 
</PointData> 
</Piece>
</UnstructuredGrid>
</VTKFile>