<?xml version="1.0"?>
<VTKFile type="UnstructuredGrid"  version="0.1"  >
<UnstructuredGrid>
<Piece  NumberOfPoints="670" NumberOfCells="1192">
<Points>
<DataArray  type="Float64"  NumberOfComponents="3"  format="ascii">0 0 0  0.04 -1.31357e-10 0  0.0400579 0.0400582 0  0 0.04 0  0.08 -2.62713e-10 0  0.080123 0.0401093 0  0.12 -3.9407e-10 0  0.120183 0.040127 0  0.16 -5.25427e-10 0  0.160176 0.0400597 0  0.2 -6.56784e-10 0  0.199997 0.0399142 0  0.24 -7.8814e-10 0  0.239816 0.0400642 0  0.28 -9.19497e-10 0  0.279804 0.0401377 0  0.32 -1.05085e-09 0  0.319855 0.0401297 0  0.36 -1.18221e-09 0  0.359906 0.0400945 0  0.4 -1.31357e-09 0  0.399941 0.0400609 0  0.44 -1.44492e-09 0  0.439962 0.0400367 0  0.48 -1.57628e-09 0  0.479975 0.0400214 0  0.52 -1.70764e-09 0  0.519983 0.0400122 0  0.5600000000000001 -1.83899e-09 0  0.559987 0.0400069 0  0.6 -1.97035e-09 0  0.59999 0.040004 0  0.64 -2.10171e-09 0  0.639993 0.0400023 0  0.68 -2.23306e-09 0  0.679994 0.0400013 0  0.72 -2.36442e-09 0  0.7199950000000001 0.0400008 0  0.76 -2.49578e-09 0  0.759996 0.0400005 0  0.8 -2.62713e-09 0  0.799997 0.0400002 0  0.84 -2.75849e-09 0  0.839997 0.0400001 0  0.88 -2.88985e-09 0  0.8799979999999999 0.04 0  0.92 -3.0212e-09 0  0.919999 0.0399999 0  0.96 -3.15256e-09 0  0.959999 0.0399998 0  1 -3.28392e-09 0  1 0.0399998 0  1.04 -3.41527e-09 0  1.04 0.0399998 0  1.08 -3.54663e-09 0  1.08 0.0399998 0  1.12 -3.67799e-09 0  1.12 0.0399998 0  1.16 -3.80934e-09 0  1.16 0.0399999 0  1.2 -3.9407e-09 0  1.2 0.04 0  1.24 -4.07206e-09 0  1.24 0.04 0  1.28 -4.20341e-09 0  1.28 0.0400001 0  1.32 -4.33477e-09 0  1.32 0.0400001 0  1.36 -4.46613e-09 0  1.36 0.04 0  1.4 -4.59748e-09 0  1.4 0.04 0  1.44 -4.72884e-09 0  1.44 0.04 0  1.48 -4.8602e-09 0  1.48 0.04 0  1.52 -4.99156e-09 0  1.52 0.04 0  1.56 -5.12291e-09 0  1.56 0.04 0  1.6 -5.25427e-09 0  1.6 0.0400001 0  1.64 -5.38563e-09 0  1.64 0.0400001 0  1.68 -5.51698e-09 0  1.68 0.04 0  1.72 -5.64834e-09 0  1.72 0.04 0  1.76 -5.7797e-09 0  1.76 0.04 0  1.8 -5.91105e-09 0  1.8 0.04 0  1.84 -6.04241e-09 0  1.84 0.04 0  1.88 -6.17377e-09 0  1.88 0.0400001 0  1.92 -6.30512e-09 0  1.92 0.0400001 0  1.96 -6.43648e-09 0  1.96 0.0400001 0  2 -6.56784e-09 0  2 0.0400001 0  2.04 -6.69919e-09 0  2.04 0.0400001 0  2.08 -6.83055e-09 0  2.08 0.04 0  2.12 -6.96191e-09 0  2.12 0.04 0  2.16 -7.09326e-09 0  2.16 0.0400001 0  2.2 -7.22462e-09 0  2.2 0.04 0  2.24 -7.35598e-09 0  2.24 0.04 0  2.28 -7.48733e-09 0  2.28 0.0399999 0  2.32 -7.618690000000001e-09 0  2.32 0.04 0  2.36 -7.750049999999999e-09 0  2.36 0.04 0  2.4 -7.8814e-09 0  2.4 0.04 0  0.0401088 0.0801235 0  0 0.08 0  0.0802509 0.0802518 0  0.120434 0.0803392 0  0.160522 0.0801977 0  0.199995 0.0795328 0  0.239464 0.0802049 0  0.279544 0.08035689999999999 0  0.319711 0.0802867 0  0.359828 0.08018740000000001 0  0.399896 0.0801123 0  0.439933 0.0800646 0  0.479955 0.0800365 0  0.519968 0.08002049999999999 0  0.559976 0.0800116 0  0.599982 0.0800066 0  0.6399860000000001 0.0800039 0  0.679989 0.0800023 0  0.719991 0.0800014 0  0.759992 0.0800008 0  0.799994 0.0800004 0  0.839995 0.08000019999999999 0  0.879996 0.0799999 0  0.919997 0.07999970000000001 0  0.959999 0.0799996 0  1 0.0799995 0  1.04 0.0799995 0  1.08 0.0799996 0  1.12 0.07999970000000001 0  1.16 0.0799998 0  1.2 0.08 0  1.24 0.0800001 0  1.28 0.0800001 0  1.32 0.0800001 0  1.36 0.08 0  1.4 0.0799999 0  1.44 0.0799999 0  1.48 0.0799999 0  1.52 0.0799999 0  1.56 0.08 0  1.6 0.0800001 0  1.64 0.0800001 0  1.68 0.08 0  1.72 0.0799999 0  1.76 0.0799999 0  1.8 0.0799999 0  1.84 0.0799999 0  1.88 0.08 0  1.92 0.0800001 0  1.96 0.0800001 0  2 0.0800001 0  2.04 0.08 0  2.08 0.0799999 0  2.12 0.0799999 0  2.16 0.08 0  2.2 0.08 0  2.24 0.0799999 0  2.28 0.0799998 0  2.32 0.0799999 0  2.36 0.0799999 0  2.4 0.08 0  0.0401262 0.120184 0  0 0.12 0  0.0803378 0.120435 0  0.120779 0.12078 0  0.161485 0.120859 0  0.199996 0.117814 0  0.238503 0.120866 0  0.279195 0.120798 0  0.319616 0.120473 0  0.359799 0.120256 0  0.39988 0.120136 0  0.439921 0.120073 0  0.479944 0.120039 0  0.519958 0.120022 0  0.5599690000000001 0.120012 0  0.599976 0.120007 0  0.639981 0.120004 0  0.679985 0.120002 0  0.719987 0.120002 0  0.7599900000000001 0.120001 0  0.799991 0.12 0  0.839993 0.12 0  0.879995 0.12 0  0.919996 0.12 0  0.959998 0.119999 0  1 0.119999 0  1.04 0.119999 0  1.08 0.119999 0  1.12 0.12 0  1.16 0.12 0  1.2 0.12 0  1.24 0.12 0  1.28 0.12 0  1.32 0.12 0  1.36 0.12 0  1.4 0.12 0  1.44 0.12 0  1.48 0.12 0  1.52 0.12 0  1.56 0.12 0  1.6 0.12 0  1.64 0.12 0  1.68 0.12 0  1.72 0.12 0  1.76 0.12 0  1.8 0.12 0  1.84 0.12 0  1.88 0.12 0  1.92 0.12 0  1.96 0.12 0  2 0.12 0  2.04 0.12 0  2.08 0.12 0  2.12 0.12 0  2.16 0.12 0  2.2 0.12 0  2.24 0.12 0  2.28 0.12 0  2.32 0.12 0  2.36 0.12 0  2.4 0.12 0  0.0400582 0.160177 0  0 0.16 0  0.0801954 0.160525 0  0.120857 0.161488 0  0.164645 0.164645 0  0.2 0.15 0  0.235355 0.164645 0  0.279119 0.161498 0  0.319759 0.16055 0  0.359874 0.160228 0  0.399906 0.160104 0  0.439925 0.160051 0  0.479941 0.160027 0  0.519954 0.160014 0  0.559964 0.160008 0  0.5999719999999999 0.160005 0  0.639978 0.160003 0  0.679982 0.160002 0  0.719985 0.160001 0  0.759988 0.160001 0  0.79999 0.16 0  0.839992 0.16 0  0.8799940000000001 0.16 0  0.919996 0.159999 0  0.959998 0.159999 0  1 0.159999 0  1.04 0.159999 0  1.08 0.159999 0  1.12 0.16 0  1.16 0.16 0  1.2 0.16 0  1.24 0.16 0  1.28 0.16 0  1.32 0.16 0  1.36 0.16 0  1.4 0.16 0  1.44 0.16 0  1.48 0.16 0  1.52 0.16 0  1.56 0.16 0  1.6 0.16 0  1.64 0.16 0  1.68 0.16 0  1.72 0.16 0  1.76 0.16 0  1.8 0.16 0  1.84 0.16 0  1.88 0.16 0  1.92 0.16 0  1.96 0.16 0  2 0.16 0  2.04 0.16 0  2.08 0.16 0  2.12 0.16 0  2.16 0.16 0  2.2 0.16 0  2.24 0.16 0  2.28 0.16 0  2.32 0.16 0  2.36 0.16 0  2.4 0.16 0  0.0399111 0.2 0  0 0.2 0  0.0795281 0.2 0  0.117811 0.2 0  0.15 0.2 0  0.282167 0.2 0  0.25 0.2 0  0.320429 0.2 0  0.36003 0.200001 0  0.399944 0.200001 0  0.439934 0.200001 0  0.479942 0.200001 0  0.519953 0.200001 0  0.559963 0.200001 0  0.59997 0.200001 0  0.639976 0.200001 0  0.6799809999999999 0.200001 0  0.719984 0.200001 0  0.759987 0.200001 0  0.799989 0.2 0  0.839991 0.2 0  0.879993 0.2 0  0.919996 0.199999 0  0.959998 0.199999 0  1 0.199999 0  1.04 0.199999 0  1.08 0.199999 0  1.12 0.2 0  1.16 0.2 0  1.2 0.2 0  1.24 0.2 0  1.28 0.2 0  1.32 0.2 0  1.36 0.2 0  1.4 0.2 0  1.44 0.2 0  1.48 0.2 0  1.52 0.2 0  1.56 0.2 0  1.6 0.2 0  1.64 0.2 0  1.68 0.2 0  1.72 0.2 0  1.76 0.2 0  1.8 0.2 0  1.84 0.2 0  1.88 0.2 0  1.92 0.2 0  1.96 0.2 0  2 0.2 0  2.04 0.2 0  2.08 0.2 0  2.12 0.2 0  2.16 0.2 0  2.2 0.2 0  2.24 0.2 0  2.28 0.2 0  2.32 0.2 0  2.36 0.2 0  2.4 0.2 0  0.0400582 0.239823 0  0 0.24 0  0.0801953 0.239475 0  0.120857 0.238513 0  0.164645 0.235355 0  0.279119 0.238502 0  0.235355 0.235355 0  0.319759 0.239451 0  0.359873 0.239774 0  0.399905 0.239898 0  0.439925 0.239951 0  0.479941 0.239976 0  0.519954 0.239988 0  0.559964 0.239994 0  0.5999719999999999 0.239997 0  0.639977 0.239999 0  0.679982 0.24 0  0.719985 0.24 0  0.759987 0.24 0  0.79999 0.24 0  0.839992 0.24 0  0.8799940000000001 0.24 0  0.919996 0.239999 0  0.959998 0.239999 0  1 0.239999 0  1.04 0.239999 0  1.08 0.239999 0  1.12 0.24 0  1.16 0.24 0  1.2 0.24 0  1.24 0.24 0  1.28 0.24 0  1.32 0.24 0  1.36 0.24 0  1.4 0.24 0  1.44 0.24 0  1.48 0.24 0  1.52 0.24 0  1.56 0.24 0  1.6 0.24 0  1.64 0.24 0  1.68 0.24 0  1.72 0.24 0  1.76 0.24 0  1.8 0.24 0  1.84 0.24 0  1.88 0.24 0  1.92 0.24 0  1.96 0.24 0  2 0.24 0  2.04 0.24 0  2.08 0.24 0  2.12 0.24 0  2.16 0.24 0  2.2 0.24 0  2.24 0.24 0  2.28 0.24 0  2.32 0.24 0  2.36 0.24 0  2.4 0.24 0  0.0401261 0.279816 0  0 0.28 0  0.0803376 0.279565 0  0.120778 0.27922 0  0.161485 0.279141 0  0.2 0.25 0  0.199996 0.282186 0  0.238503 0.279135 0  0.279195 0.279202 0  0.319616 0.279528 0  0.359799 0.279745 0  0.39988 0.279865 0  0.43992 0.279929 0  0.479944 0.279962 0  0.519958 0.27998 0  0.559968 0.27999 0  0.599976 0.279995 0  0.639981 0.279998 0  0.679984 0.279999 0  0.719987 0.28 0  0.759989 0.28 0  0.799991 0.28 0  0.839993 0.28 0  0.879995 0.28 0  0.919997 0.279999 0  0.959998 0.279999 0  1 0.279999 0  1.04 0.279999 0  1.08 0.28 0  1.12 0.28 0  1.16 0.28 0  1.2 0.28 0  1.24 0.28 0  1.28 0.28 0  1.32 0.28 0  1.36 0.28 0  1.4 0.28 0  1.44 0.28 0  1.48 0.28 0  1.52 0.28 0  1.56 0.28 0  1.6 0.28 0  1.64 0.28 0  1.68 0.28 0  1.72 0.28 0  1.76 0.28 0  1.8 0.28 0  1.84 0.28 0  1.88 0.28 0  1.92 0.28 0  1.96 0.28 0  2 0.28 0  2.04 0.28 0  2.08 0.28 0  2.12 0.28 0  2.16 0.28 0  2.2 0.28 0  2.24 0.28 0  2.28 0.28 0  2.32 0.28 0  2.36 0.28 0  2.4 0.28 0  0.0401086 0.319877 0  0 0.32 0  0.08025060000000001 0.319748 0  0.120433 0.319661 0  0.160522 0.319802 0  0.199995 0.320467 0  0.239464 0.319795 0  0.279543 0.319643 0  0.31971 0.319714 0  0.359828 0.319813 0  0.399895 0.319889 0  0.439933 0.319937 0  0.479955 0.319965 0  0.519968 0.319981 0  0.559976 0.31999 0  0.599982 0.319995 0  0.6399860000000001 0.319998 0  0.679989 0.319999 0  0.719991 0.32 0  0.759992 0.32 0  0.799994 0.32 0  0.839995 0.32 0  0.879996 0.32 0  0.919998 0.32 0  0.959999 0.32 0  1 0.32 0  1.04 0.32 0  1.08 0.32 0  1.12 0.32 0  1.16 0.32 0  1.2 0.32 0  1.24 0.32 0  1.28 0.32 0  1.32 0.32 0  1.36 0.32 0  1.4 0.32 0  1.44 0.32 0  1.48 0.32 0  1.52 0.32 0  1.56 0.32 0  1.6 0.32 0  1.64 0.32 0  1.68 0.32 0  1.72 0.32 0  1.76 0.32 0  1.8 0.32 0  1.84 0.32 0  1.88 0.32 0  1.92 0.32 0  1.96 0.32 0  2 0.32 0  2.04 0.32 0  2.08 0.32 0  2.12 0.32 0  2.16 0.32 0  2.2 0.32 0  2.24 0.32 0  2.28 0.32 0  2.32 0.32 0  2.36 0.32 0  2.4 0.32 0  0.0400579 0.359942 0  0 0.36 0  0.0801229 0.359891 0  0.120183 0.359873 0  0.160175 0.35994 0  0.199997 0.360086 0  0.239816 0.359936 0  0.279804 0.359862 0  0.319855 0.359871 0  0.359906 0.359906 0  0.399941 0.35994 0  0.439962 0.359964 0  0.479975 0.359979 0  0.5199820000000001 0.359989 0  0.559987 0.359994 0  0.59999 0.359997 0  0.639993 0.359998 0  0.679994 0.359999 0  0.7199950000000001 0.36 0  0.759996 0.36 0  0.799997 0.36 0  0.839997 0.36 0  0.8799979999999999 0.36 0  0
[...]
<PointData  Scalars="f_10391-2"> 
<DataArray  type="Float64"  Name="f_10391-2"  format="ascii">1.0885329738430491e-05  1.1544935772209207e-05  1.4847944020567606e-05  1.4291336667067001e-05  1.1364780098117342e-05  1.4872570745795029e-05  9.4056635193434328e-06  1.2338677269309106e-05  6.2847247434323991e-06  8.0411459842916833e-06  3.4676561955640882e-06  4.2792054433406453e-06  1.6266185602587923e-06  1.9294393925078698e-06  6.7113093061291610e-07  7.6739977124718800e-07  2.4865693586376842e-07  2.7547364777319948e-07  8.3475939120362511e-08  8.9835800194052747e-08  2.5445673538286480e-08  2.6559934112958477e-08  7.0359343250203109e-09  7.0800340379646433e-09  1.7611364685064365e-09  1.6902026948614339e-09  3.9815859649440853e-10  3.5851725645031566e-10  8.1118992744062571e-11  6.6862265295382783e-11  1.4854868513298998e-11  1.0777840397675934e-11  2.4361370510095389e-12  1.4522303331164748e-12  3.5555020511865240e-13  1.5024523875638034e-13  4.5642948494636640e-14  8.1730372535488112e-15  5.0306571543068122e-15  -9.7194378571218232e-16  4.4950321056423505e-16  -3.9130608453644641e-16  2.6937455613274509e-17  -7.4505829596207593e-17  -1.8906792687113976e-19  -1.0326039682906646e-17  -3.3776295290928429e-19  -1.0853662591069157e-18  -5.6244719459667452e-20  -7.6439261399285960e-20  -5.6876090061103012e-21  -6.0518035143636388e-22  -3.0639541773440332e-22  8.2637388349881901e-22  1.3994940797411808e-23  1.5047501460774694e-22  5.5594858067825477e-24  1.5568170032127185e-23  7.0089953528744668e-25  8.1438025334396183e-25  4.6975846546825395e-26  -4.2422404082705003e-26  -1.6021997204412856e-29  -1.4610251624852489e-26  -4.0266091589571113e-28  -1.6257811390558488e-27  -4.7585424483773677e-29  -8.1168365852719640e-29  -2.2707419413132018e-30  3.6025514072658253e-30  8.8162005812018587e-32  1.0123990308736738e-30  2.1057894833428168e-32  7.6983629804535514e-32  1.1095581877207517e-33  6.2505356190748400e-34  -3.2744768036458146e-35  -3.7617250996545555e-34  -6.6050590008974265e-36  -2.6899688835239680e-35  -8.9668950227157609e-38  4.3689973299556672e-37  2.9409305949922382e-38  1.4564357134660064e-37  1.1573821171547230e-39  2.6175245096595669e-39  -1.2686880213877806e-40  -6.4080679064497435e-40  -8.0440610333194780e-42  -2.6328496505648947e-41  5.0913546483596153e-43  2.5518930158609561e-42  4.1686468073609739e-44  1.3548294306971143e-43  -2.0629644977649159e-45  -1.1463863945356533e-44  -1.5918531684307343e-46  -5.3736036941204748e-46  1.0100609450505916e-47  5.6693184491422804e-47  3.9837593834584698e-49  1.3055075468660225e-48  -5.0508395588162954e-50  -2.7513153855704988e-49  3.5855156683608768e-52  3.3079940535782789e-51  1.8825703121991959e-52  1.0901907064149280e-51  -1.2330824428396561e-53  -6.6842481025248197e-53  -1.1576155275842303e-55  -1.8058853496484245e-54  7.6903546448800223e-56  4.5261925884074603e-55  -4.9258088875771217e-57  -1.8289802466644882e-56  -1.1838125043732967e-58  -1.3653752738058704e-57  4.0364831162599614e-59  1.9696831990167872e-58  -4.7495032936339869e-60  -1.1221111652796126e-59  2.3962204238266641e-05  2.2750617212546416e-05  2.5137699036061071e-05  2.1391856453961366e-05  1.3594578175077067e-05  6.8101803019163440e-06  2.8717037662401015e-06  1.0852252958437951e-06  3.7910123661667025e-07  1.2225415576628713e-07  3.6025575780137317e-08  9.6070891369047076e-09  2.3006896594820484e-09  4.9177662868358167e-10  9.3303175117045754e-11  1.5620549091421989e-11  2.2931155010864073e-12  2.9340337269981213e-13  3.2721586915967043e-14  3.2742730285892904e-15  3.3122007097770220e-16  4.2317271259454228e-17  7.0676439868426361e-18  1.2358792077171065e-18  1.9266708306324561e-19  2.5005511319470112e-20  2.5264228937940316e-21  1.6172165748082986e-22  -2.5254619969807337e-24  -2.4851693453626453e-24  -3.9391245322633444e-25  -3.5303940875845288e-26  -1.1234983381447018e-27  2.0017240103488630e-28  3.8000513584629380e-29  3.0408109379046654e-30  4.9014943121121475e-32  -1.6621301368857072e-32  -1.8371009766031185e-33  -4.9605380511966530e-35  6.4006528082707572e-36  6.0728038726720370e-37  -1.3843513027550384e-39  -2.6345872148922445e-39  -5.3064068544950928e-41  1.0054830447568373e-41  1.9002239268982268e-43  -5.0956163662219770e-44  -2.1700404660817702e-46  2.9028165421081225e-46  -3.4830080761500175e-48  -1.5049032506693280e-48  5.2175221872327176e-50  6.3013174187717458e-51  -4.6960494923291047e-52  -1.4485074163976859e-53  2.9846298506592858e-54  -6.5046064564837946e-56  -1.1914792559372645e-56  9.7381291700198042e-58  6.5236571378774024e-60  3.5538309649034086e-05  3.3598421009964391e-05  3.8347628370782589e-05  3.4151745478824049e-05  2.2196184900605344e-05  1.0350638881508450e-05  4.0096404676626229e-06  1.4365999036492811e-06  4.9728134477248883e-07  1.6118712414355586e-07  4.7736854978829102e-08  1.2738913773323329e-08  3.0381418681109195e-09  6.4356042026931233e-10  1.2028442352671183e-10  1.9666852876257930e-11  2.7731651486442898e-12  3.2806067343959057e-13  3.0433125243171898e-14  1.6979275417986116e-15  -8.4077208361406514e-17  -4.3566752159653756e-17  -8.5764708336696450e-18  -1.3589055619717194e-18  -2.0122544917653964e-19  -2.9277874025064003e-20  -4.1393318932236803e-21  -5.4178494282565246e-22  -6.1206167438079910e-23  -5.2831372447950431e-24  -2.1581479603910035e-25  2.8994344795409191e-26  7.8475499037034052e-27  9.6196469547997565e-28  6.2848980645856224e-29  -7.1875321760632732e-31  -6.7652015404465805e-31  -7.5401669296162919e-32  -3.0772094533078011e-33  2.1203376512639481e-34  3.6516792721531243e-35  1.5565274330706171e-36  -6.6782861278699985e-38  -7.6384577895571014e-39  1.8754396373214198e-40  3.7056257284378057e-41  -1.1592560264900005e-42  -2.1894267728961849e-43  7.8309528407444197e-45  1.2749388314654635e-45  -5.8473028849974447e-47  -6.8803674960230647e-48  4.3585647884803162e-49  3.0716251095746683e-50  -3.0091286286665111e-51  -8.0334204502349877e-53  1.7939397100482726e-53  -2.4708882063061740e-55  -7.9741022248861149e-56  4.7147304131992794e-57  3.0700799361667501e-58  4.4534595907699234e-05  4.2379607786468461e-05  4.7963202050909242e-05  4.5053812397680090e-05  3.3241824824380315e-05  1.2597392089590918e-05  3.8564272763196070e-06  1.4692165504143462e-06  5.4858347291425994e-07  1.8600172451393571e-07  5.6156684046732809e-08  1.5017641262328361e-08  3.5457267020579862e-09  7.3559246269276875e-10  1.3298229865400915e-10  2.0635463024325683e-11  2.6667301728791283e-12  2.6640356438839653e-13  1.5317771071700178e-14  -9.7071037776512538e-16  -4.4260092419571713e-16  -7.5546584908430703e-17  -8.3315165042277486e-18  -4.4383024169010029e-19  6.0569990484868213e-20  2.3970803823288705e-20  4.8518771956577273e-21  7.7377912520165134e-22  1.0717381948855137e-22  1.3332177450404735e-23  1.4805931414191046e-24  1.3789869129346800e-25  8.6468130413056620e-27  -1.1095578265490170e-28  -1.2768631499933264e-28  -2.0125326206111730e-29  -1.7198762575265011e-30  -4.3200923933592151e-32  9.7646875766491409e-33  1.4497044821703832e-33  7.8602687908466304e-35  -1.4299209702879119e-36  -3.9578703160371480e-37  -5.2526187968473107e-40  2.7773979936308738e-39  1.0101089646764576e-40  -1.4419211782521581e-41  -9.3945436448133464e-43  6.6504745219636735e-44  5.6503613583674004e-45  -3.6545674604433661e-46  -2.9091063859314538e-47  2.3330236537544367e-48  1.2347169952209419e-49  -1.5281222842746718e-50  -3.0968210978927978e-52  9.0014266260012267e-53  -1.2087298587137644e-54  -4.1826001781776272e-55  2.2277093453075843e-56  2.1594690106355349e-57  4.8263133807060574e-05  4.6001190477974541e-05  5.1561295498622719e-05  4.9705761263142794e-05  4.4321693516775974e-05  1.2315999847080437e-06  2.2124139352779420e-06  5.3682326342327675e-07  1.9161593385941179e-07  5.8460983817749147e-08  1.5498286573994626e-08  3.5820033206280767e-09  7.1832638304238998e-10  1.2335044717262781e-10  1.7639027055243704e-11  1.9646526557144654e-12  1.3445590719447294e-13  -4.5839194156821318e-15  -3.2244454567169276e-15  -5.7575597714500021e-16  -5.9085193156738209e-17  -1.3086710216559938e-18  9.0993960232921416e-19  2.3004916815243600e-19  3.2996082627893833e-20  2.6767465911528335e-21  -8.9626861550991954e-23  -8.0692999580418108e-23  -1.8024487089368711e-23  -2.8340648282188235e-24  -3.5869198996865867e-25  -3.8016446800064292e-26  -3.3212637672371305e-27  -2.0450601678444613e-28  1.0864730708942661e-31  2.3925594624210294e-30  3.9712073606244432e-31  3.5006230501229207e-32  9.6708630316153390e-34  -1.7201414856541578e-34  -2.1915020774504082e-35  -2.1365095063232709e-37  1.8186691973871668e-37  1.6816562838686699e-38  -2.0176928327487585e-44  -9.1023916963105698e-41  -3.0957161280854025e-42  4.0631455621260557e-43  2.3206414246771244e-44  -1.8653060899836916e-45  -1.2009385824324482e-46  1.0150102830761804e-47  4.7449995838277295e-49  -6.2170623149847249e-50  -9.6156184602606367e-52  3.6350345607690226e-52  -6.7072443627954993e-54  -1.7232567287875149e-54  1.0145948790298965e-55  9.3070257362345262e-57  4.5256488809243822e-05  4.2760267173499318e-05  4.8127516265880017e-05  4.3710671343688947e-05  3.1848853135062125e-05  1.4996273385583633e-06  3.9271353496101706e-06  5.6121055957473980e-07  1.8671783751215917e-07  5.4513314999466989e-08  1.3915029655653956e-08  3.0846109364398260e-09  5.8574185498140858e-10  9.2734664809667354e-11  1.1509051997576133e-11  9.1494360578662214e-13  -1.4147280037728859e-14  -2.0410903008637115e-14  -4.0278130732919589e-15  -4.4038908986178926e-16  -1.0966665357441502e-17  6.8196828284803136e-18  1.6940920009130554e-18  2.1835770258901596e-19  1.0008300960592540e-20  -2.7852323275491876e-21  -8.6719062325018765e-22  -1.3448267341062557e-22  -1.1162650325478325e-23  4.3210577256208282e-25  3.4501367985342702e-25  7.2338750454753185e-26  1.0360666764009413e-26  1.1414972209685313e-27  9.7315711784244578e-29  5.4957016349796824e-30  -5.6994681662485871e-32  -6.9692580186092035e-32  -1.0768054660218063e-32  -8.5576783924677477e-34  -8.1701869895596852e-37  9.1350412045124351e-36  1.1470797693739513e-36  5.3352800561062668e-38  -2.3182350943416664e-39  -4.0280925489208713e-40  -5.2395705294262635e-42  1.8874913120184877e-42  7.1026052252486458e-44  -8.2803353248719934e-45  -3.9783420810557176e-46  4.1466644664135536e-47  1.5924891694957970e-48  -2.2923678822322786e-49  -2.5095962330118206e-51  1.2515834076734381e-51  -3.2610440511288631e-53  -5.6063191858113818e-54  4.3001761437215671e-55  2.4192432952104399e-56  3.5548494173024820e-05  3.3309200452401459e-05  3.8162421299115086e-05  3.3545517153462237e-05  2.1898635743882464e-05  1.3035799511379744e-05  9.8943662864020581e-06  4.0226733158652691e-06  1.4241126930089650e-06  4.8679717810073813e-07  1.5227432781365503e-07  4.2446119070748801e-08  1.0360238098959853e-08  2.1735250246195181e-09  3.8081779062404182e-10  5.2452491638460520e-11  4.7099687089131745e-12  -3.0173541444138489e-14  -1.1041249281522154e-13  -2.3990173779252088e-14  -2.8132038310769807e-15  -7.3435634111360320e-17  4.8343935493365530e-17  1.2376389191800427e-17  1.6195780468958957e-18  7.0717877752676757e-20  -2.2143321434462695e-20  -6.5032146926933942e-21  -8.9435355289392524e-22  -3.9291780452384300e-23  1.3081269546310656e-23  3.8768087420700467e-24  5.6229452266344170e-25  3.8627666254328814e-26  -3.3160455792555585e-27  -1.4829312623813633e-27  -2.6151667039537251e-28  -3.1969567377795259e-29  -2.9862097465256113e-30  -2.0912106351607060e-31  -6.6819791474668718e-33  1.2086780154883155e-33  3.1219404110863362e-34  3.9945133339239905e-35  2.8986871259326263e-36  4.4323463803522236e-38  -1.3392945429371840e-38  -1.1393250137294658e-39  1.0523855732250750e-41  6.0852372179331906e-42  1.0292696092671834e-43  -2.8961467012023519e-44  -7.3325509628678678e-46  1.4732277154027124e-46  2.5358939315096069e-48  -7.9757411681696660e-49  4.3727659566215355e-51  4.0698017513399722e-51  -1.7017122745359025e-52  -1.5656289631428823e-53  1.7596748216801900e-54  1.4745807608582158e-56  2.3158783111122621e-05  2.1979921822903374e-05  2.4535099053580034e-05  2.1415765226913557e-05  1.3813503853403142e-05  6.6464170663621746e-06  2.7842918133660529e-06  1.0147414419448022e-06  3.4180072212924212e-07  1.0403084338583218e-07  2.7990459812858551e-08  6.5081287048735198e-09  1.2679717359372631e-09  1.9520700949921031e-10  2.0049262767500189e-11  1.3544766750768340e-13  -4.7658949384673550e-13  -1.1552124166310708e-13  -1.4298405047359532e-14  -2.3256012008330732e-16  3.3233798860558181e-16  8.5063442693535182e-17  1.1393754297545257e-17  4.8710203304695418e-19  -1.7359662175598825e-19  -5.1396824063465351e-20  -7.1953574576746645e-21  -3.2268071024922523e-22  1.0524998920684364e-22  3.0127845832661320e-23  3.7723157159854093e-24  6.2425578710891861e-26  -7.5962997900115171e-26  -1.7029625432230371e-26  -1.8093834797723991e-27  -1.5380674347729449e-29  3.0846072161373306e-29  6.1753640078991655e-30  7.0413259561322285e-31  5.4114133750217140e-32  3.4161784741303130e-33  3.2208366204223815e-34  4.1876080997991488e-35  3.6352997807222276e-36  7.8875156920783428e-38  -1.6888993341977231e-38  -1.3631601918891255e-39  4.3134310510354159e-41  8.2747484393131216e-42  -2.1114687968835203e-43  -5.5312078828743646e-44  1.4819421349854462e-45  3.7024956436107647e-46  -1.2863926772017430e-47  -2.2765990195614916e-48  1.2267888862196586e-49  1.1884631146664986e-50  -1.0805223058653549e-51  -3.8654551404638957e-53  8.1154881179430313e-54  -2.0652337374061307e-55  1.4239331774203902e-05  1.3992643889010687e-05  1.4360579012637344e-05  1.2354958888857325e-05  8.1793795693481313e-06  4.1873029642524275e-06  1.8155163859211124e-06  6.8290095722490645e-07  2.2939903195885414e-07  6.8204981773229277e-08  1.7609878768277817e-08  3.8329263193707766e-09  6.6600183875831536e-10  8.0038611408780970e-11  2.3074095733486106e-12  -1.7352091500834547e-12  -4.9425584216899156e-13  -6.6519113226222518e-14  -5.9043267545891197e-16  1.9974170305481824e-15  5.2512743677663928e-16  7.1601860984235293e-17  2.3922879124842231e-18  -1.4651249191308547e-18  -4.2512528646199147e-19  -6.2322560327345487e-20  -3.4232212955112507e-21  8.0669251017633951e-22  2.5956290513479007e-22  3.4630510459025681e-23  7.2360010597878325e-25  -6.9661016717164853e-25  -1.5219065839718984e-25  -1.1993045249924274e-26  1.4731371246977808e-27  5.8499855296006052e-28  8.0679382717615605e-29  2.8546020528477999e-30  -1.0868725019236434e-30  -2.5295044802814893e-31  -2.7293406065524184e-32  -1.0711557570879279e-33  1.4392370763637460e-34  2.8779611294199142e-35  2.2915641088246932e-36  6.1384677622530088e-38  -5.5270763936796639e-39  -6.6847705765864948e-40  -3.2214808725141457e-41  -4.7150017520559677e-43  1.2218371527717551e-43  1.6404984447398195e-44  6.2608451400285922e-47  -1.3447382622336836e-46  -3.7301028736070024e-48  9.2813457290705809e-49  2.5058828284457521e-50  -6.3856562467035531e-51  -5.7106308663809699e-53  4.1305584915986997e-53  -1.4865337424605625e-54  1.1308307045401663e-05  1.1659838008342972e-05  1.0972346968814827e-05  9.2814713419254861e-06  6.2178026865922418e-06  3.2700574913080899e-06  1.4319539373602180e-06  5.3882485195169443e-07  1.7747013627789185e-07  5.0676199570188676e-08  1.2213567738580707e-08  2.3518277282720447e-09  3.1242579044587929e-10  9.3304797138302618e-12  -8.6292082449790867e-12  -2.7241466871871791e-12  -4.2109231013575216e-13  -1.3567787960421854e-14  1.1378715921220480e-14  3.4435829055290643e-15  5.1132721612180554e-16  1.9508731337246841e-17  -1.1244598070511625e-17  -3.4800172613481767e-18  -5.4423877340915338e-19  -3.4673869953694697e-20  6.7800009612836326e-21  2.5232078385465799e-21  3.9202395659191765e-22  2.0467878477172900e-23  -5.6111524433998451e-24  -1.6364942237103734e-24  -1.7632034165990734e-25  8.4196562765828105e-27  6.2829534421580012e-27  1.0111526339158553e-27  3.7919625546870227e-29  -1.7556219226728591e-29  -4.3480725731990262e-30  -4.6398620051332231e-31  -2.0446783441122273e-33  7.8702636775301790e-33  1.4275559264528086e-33  1.3560020754625712e-34  5.7460153477832429e-36  -3.0767018967561493e-37  -6.7214567899986214e-38  -4.6551942681069500e-39  -9.1526170283157955e-41  1.1897561676811508e-41  1.3477192326722471e-42  4.9714708089179905e-44  -4.6524171155591243e-45  -6.3680684084560433e-46  5.8842496928098252e-48  4.6519254239092584e-48  2.1526938447326249e-50  -3.1051952292028441e-50  5.5289606925867159e-53  1.9583189563549614e-52  -8.5455586496151070e-54  </DataArray> 
</PointData> 
</Piece>
</UnstructuredGrid>
</VTKFile>