<?xml version="1.0"?>
<VTKFile type="UnstructuredGrid"  version="0.1"  >
<UnstructuredGrid>
<Piece  NumberOfPoints="670" NumberOfCells="1192">
<Points>
<DataArray  type="Float64"  NumberOfComponents="3"  format="ascii">0 0 0  0.04 -1.31357e-10 0  0.0400579 0.0400582 0  0 0.04 0  0.08 -2.62713e-10 0  0.080123 0.0401093 0  0.12 -3.9407e-10 0  0.120183 0.040127 0  0.16 -5.25427e-10 0  0.160176 0.0400597 0  0.2 -6.56784e-10 0  0.199997 0.0399142 0  0.24 -7.8814e-10 0  0.239816 0.0400642 0  0.28 -9.19497e-10 0  0.279804 0.0401377 0  0.32 -1.05085e-09 0  0.319855 0.0401297 0  0.36 -1.18221e-09 0  0.359906 0.0400945 0  0.4 -1.31357e-09 0  0.399941 0.0400609 0  0.44 -1.44492e-09 0  0.439962 0.0400367 0  0.48 -1.57628e-09 0  0.479975 0.0400214 0  0.52 -1.70764e-09 0  0.519983 0.0400122 0  0.5600000000000001 -1.83899e-09 0  0.559987 0.0400069 0  0.6 -1.97035e-09 0  0.59999 0.040004 0  0.64 -2.10171e-09 0  0.639993 0.0400023 0  0.68 -2.23306e-09 0  0.679994 0.0400013 0  0.72 -2.36442e-09 0  0.7199950000000001 0.0400008 0  0.76 -2.49578e-09 0  0.759996 0.0400005 0  0.8 -2.62713e-09 0  0.799997 0.0400002 0  0.84 -2.75849e-09 0  0.839997 0.0400001 0  0.88 -2.88985e-09 0  0.8799979999999999 0.04 0  0.92 -3.0212e-09 0  0.919999 0.0399999 0  0.96 -3.15256e-09 0  0.959999 0.0399998 0  1 -3.28392e-09 0  1 0.0399998 0  1.04 -3.41527e-09 0  1.04 0.0399998 0  1.08 -3.54663e-09 0  1.08 0.0399998 0  1.12 -3.67799e-09 0  1.12 0.0399998 0  1.16 -3.80934e-09 0  1.16 0.0399999 0  1.2 -3.9407e-09 0  1.2 0.04 0  1.24 -4.07206e-09 0  1.24 0.04 0  1.28 -4.20341e-09 0  1.28 0.0400001 0  1.32 -4.33477e-09 0  1.32 0.0400001 0  1.36 -4.46613e-09 0  1.36 0.04 0  1.4 -4.59748e-09 0  1.4 0.04 0  1.44 -4.72884e-09 0  1.44 0.04 0  1.48 -4.8602e-09 0  1.48 0.04 0  1.52 -4.99156e-09 0  1.52 0.04 0  1.56 -5.12291e-09 0  1.56 0.04 0  1.6 -5.25427e-09 0  1.6 0.0400001 0  1.64 -5.38563e-09 0  1.64 0.0400001 0  1.68 -5.51698e-09 0  1.68 0.04 0  1.72 -5.64834e-09 0  1.72 0.04 0  1.76 -5.7797e-09 0  1.76 0.04 0  1.8 -5.91105e-09 0  1.8 0.04 0  1.84 -6.04241e-09 0  1.84 0.04 0  1.88 -6.17377e-09 0  1.88 0.0400001 0  1.92 -6.30512e-09 0  1.92 0.0400001 0  1.96 -6.43648e-09 0  1.96 0.0400001 0  2 -6.56784e-09 0  2 0.0400001 0  2.04 -6.69919e-09 0  2.04 0.0400001 0  2.08 -6.83055e-09 0  2.08 0.04 0  2.12 -6.96191e-09 0  2.12 0.04 0  2.16 -7.09326e-09 0  2.16 0.0400001 0  2.2 -7.22462e-09 0  2.2 0.04 0  2.24 -7.35598e-09 0  2.24 0.04 0  2.28 -7.48733e-09 0  2.28 0.0399999 0  2.32 -7.618690000000001e-09 0  2.32 0.04 0  2.36 -7.750049999999999e-09 0  2.36 0.04 0  2.4 -7.8814e-09 0  2.4 0.04 0  0.0401088 0.0801235 0  0 0.08 0  0.0802509 0.0802518 0  0.120434 0.0803392 0  0.160522 0.0801977 0  0.199995 0.0795328 0  0.239464 0.0802049 0  0.279544 0.08035689999999999 0  0.319711 0.0802867 0  0.359828 0.08018740000000001 0  0.399896 0.0801123 0  0.439933 0.0800646 0  0.479955 0.0800365 0  0.519968 0.08002049999999999 0  0.559976 0.0800116 0  0.599982 0.0800066 0  0.6399860000000001 0.0800039 0  0.679989 0.0800023 0  0.719991 0.0800014 0  0.759992 0.0800008 0  0.799994 0.0800004 0  0.839995 0.08000019999999999 0  0.879996 0.0799999 0  0.919997 0.07999970000000001 0  0.959999 0.0799996 0  1 0.0799995 0  1.04 0.0799995 0  1.08 0.0799996 0  1.12 0.07999970000000001 0  1.16 0.0799998 0  1.2 0.08 0  1.24 0.0800001 0  1.28 0.0800001 0  1.32 0.0800001 0  1.36 0.08 0  1.4 0.0799999 0  1.44 0.0799999 0  1.48 0.0799999 0  1.52 0.0799999 0  1.56 0.08 0  1.6 0.0800001 0  1.64 0.0800001 0  1.68 0.08 0  1.72 0.0799999 0  1.76 0.0799999 0  1.8 0.0799999 0  1.84 0.0799999 0  1.88 0.08 0  1.92 0.0800001 0  1.96 0.0800001 0  2 0.0800001 0  2.04 0.08 0  2.08 0.0799999 0  2.12 0.0799999 0  2.16 0.08 0  2.2 0.08 0  2.24 0.0799999 0  2.28 0.0799998 0  2.32 0.0799999 0  2.36 0.0799999 0  2.4 0.08 0  0.0401262 0.120184 0  0 0.12 0  0.0803378 0.120435 0  0.120779 0.12078 0  0.161485 0.120859 0  0.199996 0.117814 0  0.238503 0.120866 0  0.279195 0.120798 0  0.319616 0.120473 0  0.359799 0.120256 0  0.39988 0.120136 0  0.439921 0.120073 0  0.479944 0.120039 0  0.519958 0.120022 0  0.5599690000000001 0.120012 0  0.599976 0.120007 0  0.639981 0.120004 0  0.679985 0.120002 0  0.719987 0.120002 0  0.7599900000000001 0.120001 0  0.799991 0.12 0  0.839993 0.12 0  0.879995 0.12 0  0.919996 0.12 0  0.959998 0.119999 0  1 0.119999 0  1.04 0.119999 0  1.08 0.119999 0  1.12 0.12 0  1.16 0.12 0  1.2 0.12 0  1.24 0.12 0  1.28 0.12 0  1.32 0.12 0  1.36 0.12 0  1.4 0.12 0  1.44 0.12 0  1.48 0.12 0  1.52 0.12 0  1.56 0.12 0  1.6 0.12 0  1.64 0.12 0  1.68 0.12 0  1.72 0.12 0  1.76 0.12 0  1.8 0.12 0  1.84 0.12 0  1.88 0.12 0  1.92 0.12 0  1.96 0.12 0  2 0.12 0  2.04 0.12 0  2.08 0.12 0  2.12 0.12 0  2.16 0.12 0  2.2 0.12 0  2.24 0.12 0  2.28 0.12 0  2.32 0.12 0  2.36 0.12 0  2.4 0.12 0  0.0400582 0.160177 0  0 0.16 0  0.0801954 0.160525 0  0.120857 0.161488 0  0.164645 0.164645 0  0.2 0.15 0  0.235355 0.164645 0  0.279119 0.161498 0  0.319759 0.16055 0  0.359874 0.160228 0  0.399906 0.160104 0  0.439925 0.160051 0  0.479941 0.160027 0  0.519954 0.160014 0  0.559964 0.160008 0  0.5999719999999999 0.160005 0  0.639978 0.160003 0  0.679982 0.160002 0  0.719985 0.160001 0  0.759988 0.160001 0  0.79999 0.16 0  0.839992 0.16 0  0.8799940000000001 0.16 0  0.919996 0.159999 0  0.959998 0.159999 0  1 0.159999 0  1.04 0.159999 0  1.08 0.159999 0  1.12 0.16 0  1.16 0.16 0  1.2 0.16 0  1.24 0.16 0  1.28 0.16 0  1.32 0.16 0  1.36 0.16 0  1.4 0.16 0  1.44 0.16 0  1.48 0.16 0  1.52 0.16 0  1.56 0.16 0  1.6 0.16 0  1.64 0.16 0  1.68 0.16 0  1.72 0.16 0  1.76 0.16 0  1.8 0.16 0  1.84 0.16 0  1.88 0.16 0  1.92 0.16 0  1.96 0.16 0  2 0.16 0  2.04 0.16 0  2.08 0.16 0  2.12 0.16 0  2.16 0.16 0  2.2 0.16 0  2.24 0.16 0  2.28 0.16 0  2.32 0.16 0  2.36 0.16 0  2.4 0.16 0  0.0399111 0.2 0  0 0.2 0  0.0795281 0.2 0  0.117811 0.2 0  0.15 0.2 0  0.282167 0.2 0  0.25 0.2 0  0.320429 0.2 0  0.36003 0.200001 0  0.399944 0.200001 0  0.439934 0.200001 0  0.479942 0.200001 0  0.519953 0.200001 0  0.559963 0.200001 0  0.59997 0.200001 0  0.639976 0.200001 0  0.6799809999999999 0.200001 0  0.719984 0.200001 0  0.759987 0.200001 0  0.799989 0.2 0  0.839991 0.2 0  0.879993 0.2 0  0.919996 0.199999 0  0.959998 0.199999 0  1 0.199999 0  1.04 0.199999 0  1.08 0.199999 0  1.12 0.2 0  1.16 0.2 0  1.2 0.2 0  1.24 0.2 0  1.28 0.2 0  1.32 0.2 0  1.36 0.2 0  1.4 0.2 0  1.44 0.2 0  1.48 0.2 0  1.52 0.2 0  1.56 0.2 0  1.6 0.2 0  1.64 0.2 0  1.68 0.2 0  1.72 0.2 0  1.76 0.2 0  1.8 0.2 0  1.84 0.2 0  1.88 0.2 0  1.92 0.2 0  1.96 0.2 0  2 0.2 0  2.04 0.2 0  2.08 0.2 0  2.12 0.2 0  2.16 0.2 0  2.2 0.2 0  2.24 0.2 0  2.28 0.2 0  2.32 0.2 0  2.36 0.2 0  2.4 0.2 0  0.0400582 0.239823 0  0 0.24 0  0.0801953 0.239475 0  0.120857 0.238513 0  0.164645 0.235355 0  0.279119 0.238502 0  0.235355 0.235355 0  0.319759 0.239451 0  0.359873 0.239774 0  0.399905 0.239898 0  0.439925 0.239951 0  0.479941 0.239976 0  0.519954 0.239988 0  0.559964 0.239994 0  0.5999719999999999 0.239997 0  0.639977 0.239999 0  0.679982 0.24 0  0.719985 0.24 0  0.759987 0.24 0  0.79999 0.24 0  0.839992 0.24 0  0.8799940000000001 0.24 0  0.919996 0.239999 0  0.959998 0.239999 0  1 0.239999 0  1.04 0.239999 0  1.08 0.239999 0  1.12 0.24 0  1.16 0.24 0  1.2 0.24 0  1.24 0.24 0  1.28 0.24 0  1.32 0.24 0  1.36 0.24 0  1.4 0.24 0  1.44 0.24 0  1.48 0.24 0  1.52 0.24 0  1.56 0.24 0  1.6 0.24 0  1.64 0.24 0  1.68 0.24 0  1.72 0.24 0  1.76 0.24 0  1.8 0.24 0  1.84 0.24 0  1.88 0.24 0  1.92 0.24 0  1.96 0.24 0  2 0.24 0  2.04 0.24 0  2.08 0.24 0  2.12 0.24 0  2.16 0.24 0  2.2 0.24 0  2.24 0.24 0  2.28 0.24 0  2.32 0.24 0  2.36 0.24 0  2.4 0.24 0  0.0401261 0.279816 0  0 0.28 0  0.0803376 0.279565 0  0.120778 0.27922 0  0.161485 0.279141 0  0.2 0.25 0  0.199996 0.282186 0  0.238503 0.279135 0  0.279195 0.279202 0  0.319616 0.279528 0  0.359799 0.279745 0  0.39988 0.279865 0  0.43992 0.279929 0  0.479944 0.279962 0  0.519958 0.27998 0  0.559968 0.27999 0  0.599976 0.279995 0  0.639981 0.279998 0  0.679984 0.279999 0  0.719987 0.28 0  0.759989 0.28 0  0.799991 0.28 0  0.839993 0.28 0  0.879995 0.28 0  0.919997 0.279999 0  0.959998 0.279999 0  1 0.279999 0  1.04 0.279999 0  1.08 0.28 0  1.12 0.28 0  1.16 0.28 0  1.2 0.28 0  1.24 0.28 0  1.28 0.28 0  1.32 0.28 0  1.36 0.28 0  1.4 0.28 0  1.44 0.28 0  1.48 0.28 0  1.52 0.28 0  1.56 0.28 0  1.6 0.28 0  1.64 0.28 0  1.68 0.28 0  1.72 0.28 0  1.76 0.28 0  1.8 0.28 0  1.84 0.28 0  1.88 0.28 0  1.92 0.28 0  1.96 0.28 0  2 0.28 0  2.04 0.28 0  2.08 0.28 0  2.12 0.28 0  2.16 0.28 0  2.2 0.28 0  2.24 0.28 0  2.28 0.28 0  2.32 0.28 0  2.36 0.28 0  2.4 0.28 0  0.0401086 0.319877 0  0 0.32 0  0.08025060000000001 0.319748 0  0.120433 0.319661 0  0.160522 0.319802 0  0.199995 0.320467 0  0.239464 0.319795 0  0.279543 0.319643 0  0.31971 0.319714 0  0.359828 0.319813 0  0.399895 0.319889 0  0.439933 0.319937 0  0.479955 0.319965 0  0.519968 0.319981 0  0.559976 0.31999 0  0.599982 0.319995 0  0.6399860000000001 0.319998 0  0.679989 0.319999 0  0.719991 0.32 0  0.759992 0.32 0  0.799994 0.32 0  0.839995 0.32 0  0.879996 0.32 0  0.919998 0.32 0  0.959999 0.32 0  1 0.32 0  1.04 0.32 0  1.08 0.32 0  1.12 0.32 0  1.16 0.32 0  1.2 0.32 0  1.24 0.32 0  1.28 0.32 0  1.32 0.32 0  1.36 0.32 0  1.4 0.32 0  1.44 0.32 0  1.48 0.32 0  1.52 0.32 0  1.56 0.32 0  1.6 0.32 0  1.64 0.32 0  1.68 0.32 0  1.72 0.32 0  1.76 0.32 0  1.8 0.32 0  1.84 0.32 0  1.88 0.32 0  1.92 0.32 0  1.96 0.32 0  2 0.32 0  2.04 0.32 0  2.08 0.32 0  2.12 0.32 0  2.16 0.32 0  2.2 0.32 0  2.24 0.32 0  2.28 0.32 0  2.32 0.32 0  2.36 0.32 0  2.4 0.32 0  0.0400579 0.359942 0  0 0.36 0  0.0801229 0.359891 0  0.120183 0.359873 0  0.160175 0.35994 0  0.199997 0.360086 0  0.239816 0.359936 0  0.279804 0.359862 0  0.319855 0.359871 0  0.359906 0.359906 0  0.399941 0.35994 0  0.439962 0.359964 0  0.479975 0.359979 0  0.5199820000000001 0.359989 0  0.559987 0.359994 0  0.59999 0.359997 0  0.639993 0.359998 0  0.679994 0.359999 0  0.7199950000000001 0.36 0  0.759996 0.36 0  0.799997 0.36 0  0.839997 0.36 0  0.8799979999999999 0.36 0  0
[...]
<PointData  Scalars="f_10391-2"> 
<DataArray  type="Float64"  Name="f_10391-2"  format="ascii">1.0630674276020936e-04  1.0652969019615982e-04  1.1707705971052398e-04  1.1717575074755417e-04  1.0032877949236617e-04  1.1158277533803652e-04  8.4376988729357996e-05  9.3993315717863602e-05  6.2303538239864031e-05  6.8379498818385974e-05  4.1169941748393995e-05  4.4268912891430815e-05  2.4942000743804855e-05  2.6295006963699045e-05  1.4178723993889709e-05  1.4721040735690590e-05  7.6592441678463326e-06  7.8699477392101212e-06  3.9492685335891518e-06  4.0284753949261720e-06  1.9443414157833896e-06  1.9714132404155049e-06  9.1295048561042143e-07  9.2010463658849072e-07  4.0824957675189777e-07  4.0869172204749842e-07  1.7364650573646415e-07  1.7248621099976966e-07  7.0182271969959573e-08  6.9084542740681601e-08  2.6931093419404004e-08  2.6230412292271613e-08  9.8048872921024447e-09  9.4320549217215617e-09  3.3846451597851244e-09  3.2092367112182844e-09  1.1071387314680428e-09  1.0321376033668681e-09  3.4296073481273881e-10  3.1342621359232685e-10  1.0054664376122178e-10  8.9753883242117807e-11  2.7879100689393437e-11  2.4203122161494956e-11  7.3058208949876730e-12  6.1346958860144629e-12  1.8079651090101044e-12  1.4583946558967073e-12  4.2212190856356274e-13  3.2426903364010848e-13  9.2885270683208097e-14  6.7170052412541496e-14  1.9236559181880672e-14  1.2892568768804318e-14  3.7431145829770429e-15  2.2738762028712258e-15  6.8275574627647560e-16  3.6348123471618246e-16  1.1636754984682760e-16  5.1330178042798634e-17  1.8446030646599439e-17  6.0465921042704033e-18  2.7000206915732680e-18  4.9299497410629679e-19  3.6070199092761148e-19  -4.6553997018414316e-21  4.3071046495213135e-20  -1.2840273390291788e-20  4.4037220241251800e-21  -3.4272191761103160e-21  3.4341686157455199e-22  -6.4284586257690057e-22  1.0485517447350092e-23  -9.7345890661811047e-23  -2.7031111125273698e-24  -1.2078232304731150e-23  -7.0389510383282032e-25  -1.1485263525022741e-24  -1.0221388043779269e-25  -5.7181937388691376e-26  -9.6796202548512333e-27  6.6747003456433893e-27  -2.7388037210623107e-28  2.4744004848481775e-27  1.1905380662556404e-28  4.3401349359805077e-28  3.2165342179914576e-29  5.2539313767284996e-29  5.0745288396502681e-30  3.8436905439336179e-30  5.4895275338948350e-31  -1.1165278953381992e-31  2.9414391368632280e-32  -9.7980853663531124e-32  -3.5942414505666647e-33  -2.0211763081880580e-32  -1.3536234384600968e-33  -2.7450014932307975e-33  -2.3613061407620211e-34  -2.4137155403749803e-34  -2.7572904808724132e-35  -2.9715684261339178e-36  -1.7652724408495109e-36  3.8340032032684222e-36  1.1539006783728665e-37  9.0868124034090335e-37  5.7193634129421598e-38  1.3014987298236674e-37  1.0293514353698555e-38  1.1882397316525340e-38  1.1840245828575069e-39  2.1201125127816576e-40  6.8899076151876493e-41  -1.6939351899177659e-40  -6.2833162195173353e-42  -3.9921004916172451e-41  -2.4889306150969303e-42  -5.4018054782763316e-42  -4.0351097172168480e-43  -4.2591576452668304e-43  -8.8561517285073647e-44  1.2078210405902024e-44  1.4342770678144799e-04  1.4192322914007650e-04  1.4099199232279946e-04  1.2051821908149219e-04  8.5707371266064900e-05  5.2977464977146431e-05  2.9996530177561072e-05  1.6260897445515644e-05  8.5552813800907145e-06  4.3469273335138244e-06  2.1179538933211651e-06  9.8470533777588415e-07  4.3555995740574272e-07  1.8296919264235563e-07  7.2906926656135453e-08  2.7528602925883943e-08  9.8410591687919140e-09  3.3276438848288751e-09  1.0632662325578779e-09  3.2069603659714748e-10  9.1188233363380887e-11  2.4413105412031599e-11  6.1441819775106140e-12  1.4510912404336780e-12  3.2092216358021654e-13  6.6307020156549109e-14  1.2762527123685847e-14  2.2806145162580519e-15  3.7693721936026864e-16  5.7409497996591351e-17  8.0423741463410319e-18  1.0415520815526126e-18  1.2788862956026278e-19  1.5945228226790310e-20  2.2540091021100454e-21  3.8092395309172867e-22  7.1064135020593282e-23  1.3070837375639307e-23  2.2141214567290519e-24  3.3329512962951983e-25  4.3122264962302748e-26  4.4801001731024757e-27  2.9126174663436096e-28  -1.2550221350068463e-29  -8.2162772635647743e-30  -1.6666121369164927e-30  -2.3089245891316096e-31  -2.1772113895256860e-32  -6.2947678813998459e-34  2.6977840579041730e-34  7.3754763727273736e-35  1.1691902661146254e-35  1.2557355801298485e-36  6.2763630038809045e-38  -9.4776031973017207e-39  -3.2696325735659750e-39  -5.4293925937970630e-40  -5.7975974236337408e-41  -2.5647283071113269e-42  5.0849812932593039e-43  3.0026906610851600e-43  1.7253731116848549e-04  1.6991708676596660e-04  1.7308107275691695e-04  1.5236516359047860e-04  1.0919497644678348e-04  6.3721258740843796e-05  3.3661422013011615e-05  1.7667390567877914e-05  9.2572814920464569e-06  4.7144833171872932e-06  2.2998075837847875e-06  1.0680707245277848e-06  4.7109213501282094e-07  1.9711521330745055e-07  7.8179255745631404e-08  2.9372618670106874e-08  1.0445419844175116e-08  3.5128052686761196e-09  1.1161279686670460e-09  3.3464481531323597e-10  9.4572870669202537e-11  2.5154622722015135e-11  6.2872449182073917e-12  1.4741008605868389e-12  3.2349852605258616e-13  6.6288163754298382e-14  1.2645941686096786e-14  2.2375442049064227e-15  3.6547276238548919e-16  5.4765968497391139e-17  7.4650284858340002e-18  9.1376844125987054e-19  9.8198557199736927e-20  8.7885361256521734e-21  5.3370657789461872e-22  -1.6487035849823968e-23  -1.5159640651707455e-23  -4.2899922160176158e-24  -1.0087431806727284e-24  -2.1536296342772352e-25  -4.1880419008477443e-26  -7.3389048962491374e-27  -1.1419748906726213e-27  -1.5390794594573570e-28  -1.6965714148926752e-29  -1.2614969148403494e-30  1.5511570013883788e-32  2.7609316361901083e-32  6.2417893115362372e-33  9.4011959422631556e-34  1.0014726634415917e-34  5.2391518490961975e-36  -7.1136206107314534e-37  -2.6418528478085508e-37  -4.6799465361609836e-38  -5.5886086537883849e-39  -3.6995917208708498e-40  2.3108298659301925e-41  1.2069168715029846e-41  2.2239293782924812e-42  4.9775328922678905e-43  1.9295824861733190e-04  1.9059568476959555e-04  1.9371572733475995e-04  1.7731580236243384e-04  1.3854420585118733e-04  6.9494788386501938e-05  3.1025992978688744e-05  1.7250024800885164e-05  9.4768636116475949e-06  4.9455785470312377e-06  2.4363844265666495e-06  1.1340465870891483e-06  4.9944338676554931e-07  2.0828535724734692e-07  8.2265416261109238e-08  3.0762156865306291e-08  1.0883943759188097e-08  3.6404762311789542e-09  1.1499265348087556e-09  3.4260118107517760e-10  9.6146924796159795e-11  2.5375884275228147e-11  6.2874381964702364e-12  1.4594607618741229e-12  3.1659304485846580e-13  6.3986193909558730e-14  1.2003990941359537e-14  2.0795732019139913e-15  3.3033274340043402e-16  4.7603266947465302e-17  6.1145050245370485e-18  6.7665585121207014e-19  5.9330471767345125e-20  2.8793053833024450e-21  -2.7440136993429183e-22  -1.0591638233999655e-22  -1.9404836709398707e-23  -2.6567609005785799e-24  -2.6420949060029156e-25  -5.6623894032203986e-27  6.5562171233842034e-27  2.4579440187517557e-27  6.3091254030589679e-28  1.3443368589779461e-28  2.4866652537006540e-29  4.0244287324793549e-30  5.6196042354222282e-31  6.4526316101389359e-32  5.1679470678261514e-33  1.4171097402134225e-35  -9.7288529871986600e-35  -2.3672611071626443e-35  -3.7460903884809187e-36  -4.2475226009747679e-37  -2.6816786750851602e-38  2.0081321865028379e-39  9.8743672386332168e-40  1.8848193252506013e-40  2.3914946684671475e-41  1.7628488699254721e-42  -1.4579001969211270e-43  2.0122092485753897e-04  1.9887342836322100e-04  2.0138827367789601e-04  1.8880500696677574e-04  1.7100087749016851e-04  1.5442557786442505e-05  2.1566012344216273e-05  9.3057668405992478e-06  5.0015800500384730e-06  2.4844872248210023e-06  1.1574868302929277e-06  5.0882229145440933e-07  2.1155418726739648e-07  8.3249958177887190e-08  3.1002748969886099e-08  1.0918787434043905e-08  3.6333285418356879e-09  1.1410566525674139e-09  3.3773412174854006e-10  9.4072400494264489e-11  2.4614040083691047e-11  6.0373316614967501e-12  1.3847434891219709e-12  2.9614066258549260e-13  5.8829142426519689e-14  1.0803513334447207e-14  1.8215134530464787e-15  2.7917095485498418e-16  3.8279821564236540e-17  4.5629148961706209e-18  4.4391000352596224e-19  2.8747432063369683e-20  -3.8233048416822831e-22  -4.7710295227581044e-22  -8.4736570131486382e-23  -8.2218781546331030e-24  5.2641822461675911e-26  2.3019088028181996e-25  6.3977796917314397e-26  1.2432402582517017e-26  1.9236359325232340e-27  2.2374946278970513e-28  1.0514728077733187e-29  -3.9531649949656770e-30  -1.6671866969025525e-30  -4.2296682622379125e-31  -8.5464489925762884e-32  -1.4591814442539443e-32  -2.1156592580478862e-33  -2.5088716850586434e-34  -2.0983558985181771e-35  -2.1407329307184291e-37  3.6391681566682491e-37  9.2492898476281742e-38  1.5059409813158066e-38  1.7742015172543130e-39  1.2471815408373844e-40  -5.5668662175771819e-42  -3.8752332594957628e-42  -1.5750301155430533e-42  1.9488841359343486e-04  1.9166435115320661e-04  1.9420840418564843e-04  1.7389171276492463e-04  1.3515973688126611e-04  1.7348762893309554e-05  3.1398696742012941e-05  9.5665795589451107e-06  4.9800291715475964e-06  2.4413704668924316e-06  1.1301067729317835e-06  4.9485520177923953e-07  2.0511938916159888e-07  8.0478391801757451e-08  2.9871132122993967e-08  1.0480005168866161e-08  3.4713283281075700e-09  1.0842190191971540e-09  3.1882847508186912e-10  8.8111855474892517e-11  2.2839959559112764e-11  5.5397955390600648e-12  1.2536575877893987e-12  2.6374795776580059e-13  5.1346086201491598e-14  9.1928519809172787e-15  1.4999183222694195e-15  2.1994675807253246e-16  2.8306841994949074e-17  3.0485443981511009e-18  2.4183272990341766e-19  6.3788051318863041e-21  -2.0884257197882230e-21  -4.6528130976537376e-22  -4.8962711387798690e-23  -5.3079076753417527e-26  1.1937713462181269e-24  3.0154348659227495e-25  4.7500922991425242e-26  4.6757933984063208e-27  -3.4726870406467610e-29  -1.5017898229661745e-28  -4.4659639599960446e-29  -9.1476820151662011e-30  -1.4531180643722794e-30  -1.6639686472445423e-31  -6.1071958861908480e-33  3.3932289816082414e-33  1.2707522750137972e-33  2.9585585782251996e-34  5.4277855428834188e-35  8.2006513886868456e-36  9.9795399251034043e-37  8.5539323589392338e-38  1.2646225272070335e-39  -1.3732068968235046e-39  -3.5529646490704192e-40  -5.8552801479806835e-41  -7.2631495687928658e-42  -1.1798411641424241e-42  1.7256635790216304e-04  1.6889933674954302e-04  1.7274841313308467e-04  1.5075383888720530e-04  1.0835867561362041e-04  7.1020819573718795e-05  6.2589853903923027e-05  3.4031041034610903e-05  1.7855796773729512e-05  9.3483286544236197e-06  4.7380554959884100e-06  2.2944552023671275e-06  1.0562597656210757e-06  4.6125558924431969e-07  1.9085330650924142e-07  7.4746521211479150e-08  2.7679721381138265e-08  9.6812451543910307e-09  3.1939461434687764e-09  9.9239448455092524e-10  2.8991484285071145e-10  7.9473014297982555e-11  2.0395059982992598e-11  4.8862295591875815e-12  1.0891317035838533e-12  2.2488097510110625e-13  4.2757853857758919e-14  7.4263839528684267e-15  1.1637215354748460e-15  1.6123367091107660e-16  1.9014751739112898e-17  1.7436623208969739e-18  8.5885050519093183e-20  -7.8597919729822321e-21  -2.6581161767925543e-21  -3.4518798598722700e-22  -1.3064868805313612e-23  5.2422173410309166e-24  1.5496830191062955e-24  2.4403776407200505e-25  2.0931333430688609e-26  -1.1253641611108422e-27  -8.8163466572073697e-28  -2.1108224234897215e-28  -3.3877355743042439e-29  -3.4428225754705872e-30  3.3299242937734201e-32  1.2003006063815987e-31  3.5858112041970256e-32  7.2239791576901944e-33  1.0872646736929657e-33  1.0677006873570622e-34  -1.0929367477465411e-36  -3.5810491424274705e-36  -1.0448028008659896e-36  -2.0792520874644808e-37  -3.2213654749929300e-38  -3.8619077009676440e-39  -3.0742034025942722e-40  1.1771016201943856e-43  5.6238224799497056e-42  2.4341082276006554e-42  1.4023874821570106e-04  1.3834321026590332e-04  1.3899277474699391e-04  1.2087815258328783e-04  8.6947790802860037e-05  5.3159476380729647e-05  3.0224305818207364e-05  1.6325942429436608e-05  8.5682567779561181e-06  4.3302853714120394e-06  2.0922857980874742e-06  9.6212706158921759e-07  4.1993435449681949e-07  1.7365428190013838e-07  6.7938322996780563e-08  2.5111569070936430e-08  8.7573283787806309e-09  2.8770484675482794e-09  8.8892956721992413e-10  2.5780831617159169e-10  7.0019306314019921e-11  1.7761489747265548e-11  4.1939425539997705e-12  9.1788751491945504e-13  1.8517761582493276e-13  3.4169847468178102e-14  5.7021270446069137e-15  8.4483395415891990e-16  1.0748493828825253e-16  1.0894522195854853e-17  6.7674537575119898e-19  -2.8205014692525561e-20  -1.5841040367970628e-20  -2.4833350708127704e-21  -1.7058475361433504e-22  2.0032573541592089e-23  8.6400580406571853e-24  1.5266245159798203e-24  1.4816201304251771e-25  -3.0014495575876360e-27  -4.6700798391518846e-27  -1.1223693059505455e-27  -1.6651078572016558e-28  -1.2971625279301665e-29  1.2949382723555158e-30  7.5581310923628097e-31  1.7756888748886534e-31  2.8151658251913486e-32  2.6614564427007674e-33  -1.1509425530288512e-34  -1.2154741036036726e-34  -3.3045563913700826e-35  -6.0663927785460529e-36  -7.7461705129955346e-37  -4.2683441677501957e-38  1.0679709886578344e-38  4.2944097690918431e-39  9.1216972628410073e-40  1.3762979976384480e-40  1.4371412598562792e-41  1.0546955028296881e-42  1.1358760834995649e-04  1.1408567543452731e-04  1.0934507792760537e-04  9.4609514674233748e-05  6.9932361766170738e-05  4.4932098451872586e-05  2.6508237913540862e-05  1.4725810199626378e-05  7.8161928774029811e-06  3.9654248851222274e-06  1.9179922069240930e-06  8.8199410825587118e-07  3.8471047883119539e-07  1.5887119795584367e-07  6.2010543293422108e-08  2.2841382958367456e-08  7.9267813414605970e-09  2.5873198265551232e-09  7.9266522596727434e-10  2.2740836528155129e-10  6.0923304818653055e-11  1.5189739300777646e-11  3.5088696717293557e-12  7.4666241723247563e-13  1.4518044522419428e-13  2.5485846405878232e-14  3.9604186361924824e-15  5.2511952799735109e-16  5.4489067217395629e-17  3.1386109391209450e-18  -2.8213661486125565e-19  -1.1754769224160411e-19  -1.9228464636307613e-20  -1.6268739751889504e-21  7.7266109137152844e-23  5.6227649810193216e-23  1.1192015216862660e-23  1.2519506022829015e-24  1.8817283731726287e-26  -2.7383688480506701e-26  -7.2599149207257422e-27  -1.1013158301709912e-27  -8.5807894776511533e-29  8.0868778103068649e-30  4.5932176349164344e-30  1.0132793301313210e-30  1.4348899515486484e-31  9.4299798578749058e-33  -1.7925094456700991e-33  -8.2093700974436339e-34  -1.8239392090340582e-34  -2.6883284812139517e-35  -1.9353495993839124e-36  3.1812515393087537e-37  1.5894862397648491e-37  3.6717055345164277e-38  5.6855365026158016e-39  5.0015474585404329e-40  -2.9875134368517345e-41  -2.3568576977866460e-41  -1.0882067287842887e-41  1.0400487970775552e-04  1.0630847780531568e-04  9.8402778697730738e-05  8.4681798319718882e-05  6.3399231915241874e-05  4.1589301712006654e-05  2.4881262469702667e-05  1.3952887463800696e-05  7.4331561631091425e-06  3.7717154186259337e-06  1.8207635777875762e-06  8.3439773373789290e-07  3.6219598911910597e-07  1.4862491749563091e-07  5.7543179712395097e-08  2.0980758708057578e-08  7.1892372156324184e-09  2.3097746515485332e-09  6.9387736527634815e-10  1.9425240365993710e-10  5.0461798494730343e-11  1.2095442990830033e-11  2.6540865362070437e-12  5.2693756037335437e-13  9.2859209031661550e-14  1.4010136428834265e-14  1.6605188087764568e-15  1.0889117252189866e-16  -1.2241032780951251e-17  -6.0041885578225439e-18  -1.2655988510268202e-18  -1.7682715976063282e-19  -1.3817309648430453e-20  7.9306299597377876e-22  5.1087355805042666e-22  1.0169723777021523e-22  1.1753343296766748e-23  3.1652226267464244e-25  -2.1347985479726780e-25  -5.9302128471108709e-26  -9.0407036461439536e-27  -7.0355604361219691e-28  6.1745273126949008e-29  3.4877714002351601e-29  7.4225331714594788e-30  9.9265825715589165e-31  5.4421465126884460e-32  -1.4462410820646005e-32  -5.7197772199670352e-33  -1.1781281715097064e-33  -1.5714457235213877e-34  -7.3614330938214767e-36  3.0657990096559889e-36  1.1591236934227494e-36  2.4135372037866353e-37  3.2590138253757206e-38  1.5482408818954719e-39  -6.2592570395446740e-40  -2.3330962541564602e-40  -4.8075726478339365e-41  -1.1293261724562248e-41  </DataArray> 
</PointData> 
</Piece>
</UnstructuredGrid>
</VTKFile>