<?xml version="1.0"?>
<VTKFile type="UnstructuredGrid"  version="0.1"  >
<UnstructuredGrid>
<Piece  NumberOfPoints="670" NumberOfCells="1192">
<Points>
<DataArray  type="Float64"  NumberOfComponents="3"  format="ascii">0 0 0  0.04 -1.31357e-10 0  0.0400579 0.0400582 0  0 0.04 0  0.08 -2.62713e-10 0  0.080123 0.0401093 0  0.12 -3.9407e-10 0  0.120183 0.040127 0  0.16 -5.25427e-10 0  0.160176 0.0400597 0  0.2 -6.56784e-10 0  0.199997 0.0399142 0  0.24 -7.8814e-10 0  0.239816 0.0400642 0  0.28 -9.19497e-10 0  0.279804 0.0401377 0  0.32 -1.05085e-09 0  0.319855 0.0401297 0  0.36 -1.18221e-09 0  0.359906 0.0400945 0  0.4 -1.31357e-09 0  0.399941 0.0400609 0  0.44 -1.44492e-09 0  0.439962 0.0400367 0  0.48 -1.57628e-09 0  0.479975 0.0400214 0  0.52 -1.70764e-09 0  0.519983 0.0400122 0  0.5600000000000001 -1.83899e-09 0  0.559987 0.0400069 0  0.6 -1.97035e-09 0  0.59999 0.040004 0  0.64 -2.10171e-09 0  0.639993 0.0400023 0  0.68 -2.23306e-09 0  0.679994 0.0400013 0  0.72 -2.36442e-09 0  0.7199950000000001 0.0400008 0  0.76 -2.49578e-09 0  0.759996 0.0400005 0  0.8 -2.62713e-09 0  0.799997 0.0400002 0  0.84 -2.75849e-09 0  0.839997 0.0400001 0  0.88 -2.88985e-09 0  0.8799979999999999 0.04 0  0.92 -3.0212e-09 0  0.919999 0.0399999 0  0.96 -3.15256e-09 0  0.959999 0.0399998 0  1 -3.28392e-09 0  1 0.0399998 0  1.04 -3.41527e-09 0  1.04 0.0399998 0  1.08 -3.54663e-09 0  1.08 0.0399998 0  1.12 -3.67799e-09 0  1.12 0.0399998 0  1.16 -3.80934e-09 0  1.16 0.0399999 0  1.2 -3.9407e-09 0  1.2 0.04 0  1.24 -4.07206e-09 0  1.24 0.04 0  1.28 -4.20341e-09 0  1.28 0.0400001 0  1.32 -4.33477e-09 0  1.32 0.0400001 0  1.36 -4.46613e-09 0  1.36 0.04 0  1.4 -4.59748e-09 0  1.4 0.04 0  1.44 -4.72884e-09 0  1.44 0.04 0  1.48 -4.8602e-09 0  1.48 0.04 0  1.52 -4.99156e-09 0  1.52 0.04 0  1.56 -5.12291e-09 0  1.56 0.04 0  1.6 -5.25427e-09 0  1.6 0.0400001 0  1.64 -5.38563e-09 0  1.64 0.0400001 0  1.68 -5.51698e-09 0  1.68 0.04 0  1.72 -5.64834e-09 0  1.72 0.04 0  1.76 -5.7797e-09 0  1.76 0.04 0  1.8 -5.91105e-09 0  1.8 0.04 0  1.84 -6.04241e-09 0  1.84 0.04 0  1.88 -6.17377e-09 0  1.88 0.0400001 0  1.92 -6.30512e-09 0  1.92 0.0400001 0  1.96 -6.43648e-09 0  1.96 0.0400001 0  2 -6.56784e-09 0  2 0.0400001 0  2.04 -6.69919e-09 0  2.04 0.0400001 0  2.08 -6.83055e-09 0  2.08 0.04 0  2.12 -6.96191e-09 0  2.12 0.04 0  2.16 -7.09326e-09 0  2.16 0.0400001 0  2.2 -7.22462e-09 0  2.2 0.04 0  2.24 -7.35598e-09 0  2.24 0.04 0  2.28 -7.48733e-09 0  2.28 0.0399999 0  2.32 -7.618690000000001e-09 0  2.32 0.04 0  2.36 -7.750049999999999e-09 0  2.36 0.04 0  2.4 -7.8814e-09 0  2.4 0.04 0  0.0401088 0.0801235 0  0 0.08 0  0.0802509 0.0802518 0  0.120434 0.0803392 0  0.160522 0.0801977 0  0.199995 0.0795328 0  0.239464 0.0802049 0  0.279544 0.08035689999999999 0  0.319711 0.0802867 0  0.359828 0.08018740000000001 0  0.399896 0.0801123 0  0.439933 0.0800646 0  0.479955 0.0800365 0  0.519968 0.08002049999999999 0  0.559976 0.0800116 0  0.599982 0.0800066 0  0.6399860000000001 0.0800039 0  0.679989 0.0800023 0  0.719991 0.0800014 0  0.759992 0.0800008 0  0.799994 0.0800004 0  0.839995 0.08000019999999999 0  0.879996 0.0799999 0  0.919997 0.07999970000000001 0  0.959999 0.0799996 0  1 0.0799995 0  1.04 0.0799995 0  1.08 0.0799996 0  1.12 0.07999970000000001 0  1.16 0.0799998 0  1.2 0.08 0  1.24 0.0800001 0  1.28 0.0800001 0  1.32 0.0800001 0  1.36 0.08 0  1.4 0.0799999 0  1.44 0.0799999 0  1.48 0.0799999 0  1.52 0.0799999 0  1.56 0.08 0  1.6 0.0800001 0  1.64 0.0800001 0  1.68 0.08 0  1.72 0.0799999 0  1.76 0.0799999 0  1.8 0.0799999 0  1.84 0.0799999 0  1.88 0.08 0  1.92 0.0800001 0  1.96 0.0800001 0  2 0.0800001 0  2.04 0.08 0  2.08 0.0799999 0  2.12 0.0799999 0  2.16 0.08 0  2.2 0.08 0  2.24 0.0799999 0  2.28 0.0799998 0  2.32 0.0799999 0  2.36 0.0799999 0  2.4 0.08 0  0.0401262 0.120184 0  0 0.12 0  0.0803378 0.120435 0  0.120779 0.12078 0  0.161485 0.120859 0  0.199996 0.117814 0  0.238503 0.120866 0  0.279195 0.120798 0  0.319616 0.120473 0  0.359799 0.120256 0  0.39988 0.120136 0  0.439921 0.120073 0  0.479944 0.120039 0  0.519958 0.120022 0  0.5599690000000001 0.120012 0  0.599976 0.120007 0  0.639981 0.120004 0  0.679985 0.120002 0  0.719987 0.120002 0  0.7599900000000001 0.120001 0  0.799991 0.12 0  0.839993 0.12 0  0.879995 0.12 0  0.919996 0.12 0  0.959998 0.119999 0  1 0.119999 0  1.04 0.119999 0  1.08 0.119999 0  1.12 0.12 0  1.16 0.12 0  1.2 0.12 0  1.24 0.12 0  1.28 0.12 0  1.32 0.12 0  1.36 0.12 0  1.4 0.12 0  1.44 0.12 0  1.48 0.12 0  1.52 0.12 0  1.56 0.12 0  1.6 0.12 0  1.64 0.12 0  1.68 0.12 0  1.72 0.12 0  1.76 0.12 0  1.8 0.12 0  1.84 0.12 0  1.88 0.12 0  1.92 0.12 0  1.96 0.12 0  2 0.12 0  2.04 0.12 0  2.08 0.12 0  2.12 0.12 0  2.16 0.12 0  2.2 0.12 0  2.24 0.12 0  2.28 0.12 0  2.32 0.12 0  2.36 0.12 0  2.4 0.12 0  0.0400582 0.160177 0  0 0.16 0  0.0801954 0.160525 0  0.120857 0.161488 0  0.164645 0.164645 0  0.2 0.15 0  0.235355 0.164645 0  0.279119 0.161498 0  0.319759 0.16055 0  0.359874 0.160228 0  0.399906 0.160104 0  0.439925 0.160051 0  0.479941 0.160027 0  0.519954 0.160014 0  0.559964 0.160008 0  0.5999719999999999 0.160005 0  0.639978 0.160003 0  0.679982 0.160002 0  0.719985 0.160001 0  0.759988 0.160001 0  0.79999 0.16 0  0.839992 0.16 0  0.8799940000000001 0.16 0  0.919996 0.159999 0  0.959998 0.159999 0  1 0.159999 0  1.04 0.159999 0  1.08 0.159999 0  1.12 0.16 0  1.16 0.16 0  1.2 0.16 0  1.24 0.16 0  1.28 0.16 0  1.32 0.16 0  1.36 0.16 0  1.4 0.16 0  1.44 0.16 0  1.48 0.16 0  1.52 0.16 0  1.56 0.16 0  1.6 0.16 0  1.64 0.16 0  1.68 0.16 0  1.72 0.16 0  1.76 0.16 0  1.8 0.16 0  1.84 0.16 0  1.88 0.16 0  1.92 0.16 0  1.96 0.16 0  2 0.16 0  2.04 0.16 0  2.08 0.16 0  2.12 0.16 0  2.16 0.16 0  2.2 0.16 0  2.24 0.16 0  2.28 0.16 0  2.32 0.16 0  2.36 0.16 0  2.4 0.16 0  0.0399111 0.2 0  0 0.2 0  0.0795281 0.2 0  0.117811 0.2 0  0.15 0.2 0  0.282167 0.2 0  0.25 0.2 0  0.320429 0.2 0  0.36003 0.200001 0  0.399944 0.200001 0  0.439934 0.200001 0  0.479942 0.200001 0  0.519953 0.200001 0  0.559963 0.200001 0  0.59997 0.200001 0  0.639976 0.200001 0  0.6799809999999999 0.200001 0  0.719984 0.200001 0  0.759987 0.200001 0  0.799989 0.2 0  0.839991 0.2 0  0.879993 0.2 0  0.919996 0.199999 0  0.959998 0.199999 0  1 0.199999 0  1.04 0.199999 0  1.08 0.199999 0  1.12 0.2 0  1.16 0.2 0  1.2 0.2 0  1.24 0.2 0  1.28 0.2 0  1.32 0.2 0  1.36 0.2 0  1.4 0.2 0  1.44 0.2 0  1.48 0.2 0  1.52 0.2 0  1.56 0.2 0  1.6 0.2 0  1.64 0.2 0  1.68 0.2 0  1.72 0.2 0  1.76 0.2 0  1.8 0.2 0  1.84 0.2 0  1.88 0.2 0  1.92 0.2 0  1.96 0.2 0  2 0.2 0  2.04 0.2 0  2.08 0.2 0  2.12 0.2 0  2.16 0.2 0  2.2 0.2 0  2.24 0.2 0  2.28 0.2 0  2.32 0.2 0  2.36 0.2 0  2.4 0.2 0  0.0400582 0.239823 0  0 0.24 0  0.0801953 0.239475 0  0.120857 0.238513 0  0.164645 0.235355 0  0.279119 0.238502 0  0.235355 0.235355 0  0.319759 0.239451 0  0.359873 0.239774 0  0.399905 0.239898 0  0.439925 0.239951 0  0.479941 0.239976 0  0.519954 0.239988 0  0.559964 0.239994 0  0.5999719999999999 0.239997 0  0.639977 0.239999 0  0.679982 0.24 0  0.719985 0.24 0  0.759987 0.24 0  0.79999 0.24 0  0.839992 0.24 0  0.8799940000000001 0.24 0  0.919996 0.239999 0  0.959998 0.239999 0  1 0.239999 0  1.04 0.239999 0  1.08 0.239999 0  1.12 0.24 0  1.16 0.24 0  1.2 0.24 0  1.24 0.24 0  1.28 0.24 0  1.32 0.24 0  1.36 0.24 0  1.4 0.24 0  1.44 0.24 0  1.48 0.24 0  1.52 0.24 0  1.56 0.24 0  1.6 0.24 0  1.64 0.24 0  1.68 0.24 0  1.72 0.24 0  1.76 0.24 0  1.8 0.24 0  1.84 0.24 0  1.88 0.24 0  1.92 0.24 0  1.96 0.24 0  2 0.24 0  2.04 0.24 0  2.08 0.24 0  2.12 0.24 0  2.16 0.24 0  2.2 0.24 0  2.24 0.24 0  2.28 0.24 0  2.32 0.24 0  2.36 0.24 0  2.4 0.24 0  0.0401261 0.279816 0  0 0.28 0  0.0803376 0.279565 0  0.120778 0.27922 0  0.161485 0.279141 0  0.2 0.25 0  0.199996 0.282186 0  0.238503 0.279135 0  0.279195 0.279202 0  0.319616 0.279528 0  0.359799 0.279745 0  0.39988 0.279865 0  0.43992 0.279929 0  0.479944 0.279962 0  0.519958 0.27998 0  0.559968 0.27999 0  0.599976 0.279995 0  0.639981 0.279998 0  0.679984 0.279999 0  0.719987 0.28 0  0.759989 0.28 0  0.799991 0.28 0  0.839993 0.28 0  0.879995 0.28 0  0.919997 0.279999 0  0.959998 0.279999 0  1 0.279999 0  1.04 0.279999 0  1.08 0.28 0  1.12 0.28 0  1.16 0.28 0  1.2 0.28 0  1.24 0.28 0  1.28 0.28 0  1.32 0.28 0  1.36 0.28 0  1.4 0.28 0  1.44 0.28 0  1.48 0.28 0  1.52 0.28 0  1.56 0.28 0  1.6 0.28 0  1.64 0.28 0  1.68 0.28 0  1.72 0.28 0  1.76 0.28 0  1.8 0.28 0  1.84 0.28 0  1.88 0.28 0  1.92 0.28 0  1.96 0.28 0  2 0.28 0  2.04 0.28 0  2.08 0.28 0  2.12 0.28 0  2.16 0.28 0  2.2 0.28 0  2.24 0.28 0  2.28 0.28 0  2.32 0.28 0  2.36 0.28 0  2.4 0.28 0  0.0401086 0.319877 0  0 0.32 0  0.08025060000000001 0.319748 0  0.120433 0.319661 0  0.160522 0.319802 0  0.199995 0.320467 0  0.239464 0.319795 0  0.279543 0.319643 0  0.31971 0.319714 0  0.359828 0.319813 0  0.399895 0.319889 0  0.439933 0.319937 0  0.479955 0.319965 0  0.519968 0.319981 0  0.559976 0.31999 0  0.599982 0.319995 0  0.6399860000000001 0.319998 0  0.679989 0.319999 0  0.719991 0.32 0  0.759992 0.32 0  0.799994 0.32 0  0.839995 0.32 0  0.879996 0.32 0  0.919998 0.32 0  0.959999 0.32 0  1 0.32 0  1.04 0.32 0  1.08 0.32 0  1.12 0.32 0  1.16 0.32 0  1.2 0.32 0  1.24 0.32 0  1.28 0.32 0  1.32 0.32 0  1.36 0.32 0  1.4 0.32 0  1.44 0.32 0  1.48 0.32 0  1.52 0.32 0  1.56 0.32 0  1.6 0.32 0  1.64 0.32 0  1.68 0.32 0  1.72 0.32 0  1.76 0.32 0  1.8 0.32 0  1.84 0.32 0  1.88 0.32 0  1.92 0.32 0  1.96 0.32 0  2 0.32 0  2.04 0.32 0  2.08 0.32 0  2.12 0.32 0  2.16 0.32 0  2.2 0.32 0  2.24 0.32 0  2.28 0.32 0  2.32 0.32 0  2.36 0.32 0  2.4 0.32 0  0.0400579 0.359942 0  0 0.36 0  0.0801229 0.359891 0  0.120183 0.359873 0  0.160175 0.35994 0  0.199997 0.360086 0  0.239816 0.359936 0  0.279804 0.359862 0  0.319855 0.359871 0  0.359906 0.359906 0  0.399941 0.35994 0  0.439962 0.359964 0  0.479975 0.359979 0  0.5199820000000001 0.359989 0  0.559987 0.359994 0  0.59999 0.359997 0  0.639993 0.359998 0  0.679994 0.359999 0  0.7199950000000001 0.36 0  0.759996 0.36 0  0.799997 0.36 0  0.839997 0.36 0  0.8799979999999999 0.36 0  0
[...]
<PointData  Scalars="f_10391-2"> 
<DataArray  type="Float64"  Name="f_10391-2"  format="ascii">4.9317061343855535e-07  6.8558699167823969e-07  1.3206617885989997e-06  1.0793545195917455e-06  8.5765603813824345e-07  1.6158633628346685e-06  7.8838113750587605e-07  1.4464028836297120e-06  5.0127343319233561e-07  8.7319144866515047e-07  2.3300895913239541e-07  3.8256152787722256e-07  8.2648604440538720e-08  1.2708173776889455e-07  2.3606606027026510e-08  3.3875147231505905e-08  5.6101075900306082e-09  7.4776555527724110e-09  1.1262479064790395e-09  1.3751218251875128e-09  1.9184082612002869e-10  2.0774713602948522e-10  2.7654783951561226e-11  2.4785269594847707e-11  3.3414186026920744e-12  2.0890994526186928e-12  3.3103136609351122e-13  6.5321537442119758e-14  2.5537361360370152e-14  -1.4991004492277131e-14  1.3165134600255965e-15  -3.4461158023077227e-15  1.1856275589159703e-17  -4.1702513817822344e-16  -5.5801022374462826e-18  -3.2882675889308225e-17  -5.9032903525497795e-19  -1.4236928906204179e-18  -2.6437631252275140e-20  2.1053165960660379e-20  1.4833823232237061e-22  7.8087452416578797e-21  7.0399101794344698e-23  4.4877957339245743e-22  6.7850331970765790e-25  -1.2691095215087374e-24  -2.4148369228061346e-25  -1.1704301674576691e-24  -4.6688313271365171e-27  9.7830169937694812e-29  7.7110857252805665e-28  4.5419306265963195e-27  1.4705928934368614e-30  -2.6183281724838087e-30  -3.1339767497941819e-30  -1.6125211062488977e-29  7.6119296534132847e-32  3.5887379354609875e-31  9.5975738390744045e-33  5.1279562799806568e-32  -6.9643544267586218e-34  -3.4687305046703338e-33  -4.2674035680027791e-36  -7.5596469745396583e-35  3.3109769762129453e-36  1.7942327540445368e-35  -1.7762938232160325e-37  -6.6551095799976894e-37  -3.2349634913746575e-39  -3.9250443929023923e-38  1.0355045371907227e-39  5.6434281471985468e-39  -6.2879160136480506e-41  -2.1356034660435111e-40  8.2166689244804827e-44  -1.0454376190486231e-41  2.9775969543126702e-43  1.9105658321704271e-42  -2.7921947814599806e-44  -1.0535953833839589e-43  1.0018054675308847e-45  -8.8356997554923964e-46  6.6794782100543587e-47  5.8244506837355837e-46  -1.1373919699770402e-47  -4.6400921769595960e-47  6.4040081259211298e-49  1.4857350521981365e-48  -3.2347582101247407e-51  8.0837422195121844e-50  -2.3685609794273494e-51  -1.4774945578948401e-50  2.2533887963672284e-52  1.0521455306548489e-51  -1.2046704889034524e-53  -3.7530645907853805e-53  3.1077114230026559e-55  -7.1654095678113199e-55  1.5010642561388466e-56  2.3104589949318691e-55  -2.7467826777201484e-57  -2.2197717003442637e-56  2.4613415620832801e-58  1.5307860625777119e-57  -1.8619808172549712e-59  -7.9569179350587459e-59  1.2866237772607091e-60  2.3211700950283116e-60  -7.2942014413684070e-62  1.1707498440814942e-61  2.3273306697276488e-63  -2.9367666599475022e-62  1.3719360542383330e-64  3.4414743728493189e-63  -3.5847801300442698e-65  -3.0366738590384176e-64  4.3354951613205286e-66  2.1374130004851784e-65  -4.0626744787025544e-67  -1.1055884131646424e-66  6.9711606335076526e-68  7.0852628070258770e-68  3.4433967675729718e-06  2.8907746520491265e-06  4.2969196072575276e-06  3.8844922705304188e-06  2.2685935023601949e-06  9.3196421442168839e-07  2.8979604125282075e-07  7.3597836658053315e-08  1.5989291391353996e-08  2.9845129366951226e-09  4.7317902065178678e-10  6.2746116128847982e-11  6.8385094038198382e-12  6.0199770077552125e-13  4.3031710481407223e-14  2.9224676487773606e-15  2.9606774684402001e-16  4.3257909687180376e-17  5.5984631754487222e-18  5.1790338875545759e-19  2.8805619316311691e-20  2.6444077942563560e-22  -9.3064788388805175e-23  -5.6117475421145041e-24  1.1628616741516327e-25  2.0202077939403830e-26  -3.2591960197738454e-28  -7.2997184276992137e-29  2.3900592185023404e-30  2.5618276609087603e-31  -1.6031322929095232e-32  -4.4591082542260766e-34  8.9453962818764523e-35  -2.3135109208539953e-36  -2.7286572923244904e-37  2.6253125932662443e-38  -4.8065846411409756e-40  -9.4412578467470377e-41  8.9307994542268721e-42  -1.8710998701855255e-43  -2.4155023926781174e-44  2.5208361391564092e-45  -1.1759984005397922e-46  1.3484607869070263e-48  4.1141613515761052e-49  -5.9256155863885509e-50  4.5283093749232233e-51  -1.5312380556318422e-52  -8.7390257730568035e-54  1.7730439622481489e-54  -1.5180657791496252e-55  8.0390573230699144e-57  -1.4588784222421123e-58  -2.3964561581114372e-59  3.6098030868316258e-60  -3.1642836822506877e-61  2.0578001153595986e-62  -9.5912379710680825e-64  1.5432442808631445e-65  3.6199098376114113e-66  -1.0011729696832726e-66  6.8227317082862202e-06  5.8303000842515914e-06  8.6447533246127702e-06  8.1955870385288397e-06  4.9468215254970523e-06  1.8762629426397269e-06  5.3414760770260325e-07  1.2539944436374948e-07  2.6410227115428752e-08  4.8409426279256390e-09  7.4269546546044450e-10  9.1197205711480613e-11  8.2140319906029272e-12  3.7860739295330986e-13  -3.1962669957442023e-14  -1.0025310136594315e-14  -1.3905742457941430e-15  -1.3942165624975770e-16  -1.1732614850482508e-17  -9.7201420468960559e-19  -8.6851836776661309e-20  -7.1941642915718806e-21  -4.0210858305179012e-22  -4.2088429645984091e-24  1.2048761641695498e-24  5.4928806205162372e-26  -3.8022325608272592e-27  -2.8209275339895402e-28  1.3681628998853025e-29  9.1212869094871025e-31  -7.9772527872973004e-32  -2.0035460383048820e-33  3.9985477781749237e-34  -7.6881444053728236e-36  -1.3808308449824068e-36  1.1078089634281471e-37  4.3370207478524771e-40  -5.0226783540405108e-40  2.7084166719350318e-41  7.0433189077812571e-44  -9.7692744066574794e-44  8.4026707008972214e-45  -4.4392216783305219e-46  3.3934288685080956e-48  2.3482788099473122e-48  -2.9313650028334605e-49  1.9871856242061769e-50  -4.3895646973051602e-52  -8.1615850835888327e-53  1.1972356559048701e-53  -8.2505568689013160e-55  2.3742770445661984e-56  1.7309357281539048e-57  -3.1711852100962711e-58  2.7244639720587949e-59  -1.5314722887084601e-60  4.2885243465837914e-62  2.4519987315038070e-63  -5.0598202134339441e-64  5.1640545153871053e-65  -7.4631122962315863e-66  9.8992891654809493e-06  8.6367976907364036e-06  1.2361220954957492e-05  1.2465452449859203e-05  8.8656964969818362e-06  2.6018170372248742e-06  5.5076541027558320e-07  1.3060042406389889e-07  2.9424508353103438e-08  5.5606631130116522e-09  8.3051288422644549e-10  9.0744683094708817e-11  5.5704045823903975e-12  -2.4018833832052945e-13  -1.1237318392046897e-13  -1.4640759938382996e-14  -7.7253697717498238e-16  8.5553063902166901e-17  2.6575097334072255e-17  3.6824715589376728e-18  3.5252504754684374e-19  2.6067477213729212e-20  1.6489625880759522e-21  9.6101265372968026e-23  4.1623872205616615e-24  -1.8908735069412105e-26  -1.6044504210803253e-26  -2.7627906148139727e-28  7.7896369202611484e-29  2.2870115853084246e-30  -3.2399413894806211e-31  -3.6784364243675559e-33  1.5311604881683573e-33  -3.4900052030283453e-35  -5.7266813963954964e-36  3.6139457290352529e-37  4.8606338282074226e-39  -1.4761186963748516e-39  8.8060303539393958e-41  -2.1674586609642196e-42  -2.9171732185709262e-43  4.8483235692779295e-44  -2.8361847481037189e-45  -3.3223535324651773e-47  1.9406164185196963e-47  -1.7011998740712982e-48  6.2786599747125447e-50  2.9542924534135122e-51  -6.6283827150098064e-52  5.6772985826762568e-53  -2.5958147208343801e-54  -3.9803585194266386e-56  1.9503486042962417e-56  -1.9550722318953968e-57  1.1594905268297857e-58  -3.1280907222198358e-60  -2.3065125713264678e-61  4.3036880196419820e-62  -3.9324284315743651e-63  2.5876444556586163e-64  -2.4075585391492504e-65  1.1291863185022970e-05  9.9223868757666648e-06  1.3831794228882513e-05  1.4268012774792969e-05  1.2682133649485518e-05  9.4941364068049992e-08  2.5267649789714020e-07  2.6565760962279910e-08  5.3239423205900922e-09  7.6406094615157367e-10  6.9898527299658825e-11  1.3322206549455315e-12  -7.6293063454668443e-13  -1.3233761916925343e-13  -7.6515956313626648e-15  1.0419982808900462e-15  3.0225655080115913e-16  3.2898425704763183e-17  6.1562415675773245e-19  -4.0886539424241400e-19  -7.9987735431740296e-20  -8.6801055880581039e-21  -6.2897904565551487e-22  -3.1131593886747060e-23  -1.0264937389300670e-24  -1.4828163598935898e-26  1.4879181542252995e-27  1.2827863695757316e-28  -5.3525294548441981e-30  -9.2007538596032124e-31  2.1815641816333213e-32  4.2579997025085005e-33  -1.6804786638782478e-34  -9.9142682724618368e-36  1.1802316595530468e-36  -4.8111776417476883e-38  -3.2035003238715166e-39  6.8040933636468463e-40  -2.8018832710092351e-41  -2.5167742764650253e-42  3.3439844056743316e-43  -1.1130576868061054e-44  -8.6086874746666843e-46  1.3221673304672942e-46  -7.0746206413155920e-48  -4.7693698433645377e-50  3.9642569529702362e-50  -3.5626831987688934e-51  1.6486077873085059e-52  2.0783329592048702e-55  -8.7451970303887105e-55  1.0193433645870231e-55  -7.2931912211369508e-57  2.8404325471811817e-58  7.9140460626321661e-60  -2.4962604636755127e-60  2.5385275275112812e-61  -1.7402848778712265e-62  7.7884902387509052e-64  -1.4955514349983326e-65  1.0217976940999664e-05  8.8664459082579050e-06  1.2456066599172943e-05  1.1971976463745569e-05  8.3175586245250355e-06  1.3545924548283701e-07  5.5871424435443421e-07  3.0184850353224803e-08  5.2124505149894568e-09  6.2778772603032403e-10  3.6669429050512742e-11  -3.4894475109167541e-12  -1.1225065189946549e-12  -1.1321436108303140e-13  1.6398225802413473e-15  2.0838413448793348e-15  2.5835940017251681e-16  -2.2284911931858164e-18  -5.5103410734652879e-18  -8.7655774407389049e-19  -4.9216962070849133e-20  6.0007841160969050e-21  1.7018541322767816e-21  2.0061997023829188e-22  1.4056544781113334e-23  5.3615613132879808e-25  1.7659822364822685e-27  -8.5036487486475306e-28  -2.9312001776722163e-29  1.6230783456513267e-30  1.9347858811735593e-31  -4.3173380047765552e-33  -1.1837782974274562e-33  5.5905510843165551e-35  7.0666323725415558e-36  -6.5245692880556908e-37  -2.6570948667756159e-38  4.8584800913852038e-39  -6.7969871619764666e-41  -2.0536055931895485e-41  1.5849272023846195e-42  -6.7013427303741484e-45  -7.4164690846266756e-45  5.9966394581935224e-46  -1.2866051038334073e-47  -1.7359075083724888e-48  2.1913980153270147e-49  -1.2307223625747178e-50  1.3843812352376911e-52  4.4304639465035527e-53  -5.2105746927141718e-54  3.6062369605728900e-55  -1.6373287441206713e-56  6.0528331994008444e-59  9.3461932804333632e-59  -1.2785185746919132e-59  1.0715359815020890e-60  -5.9399496414851221e-62  1.1570061254499679e-63  3.2962007926337363e-64  6.9472852320181089e-06  5.9540978629908129e-06  8.6354786435398872e-06  8.0271269648202639e-06  4.8464386627714036e-06  2.7257801083492864e-06  1.6830631470024774e-06  5.0293327920763679e-07  1.0636462990600612e-07  1.9325703616867307e-08  2.4674350583694618e-09  1.0738112628528982e-10  -3.8446048601624945e-11  -1.1197772290941460e-11  -1.5191348343256295e-12  -8.4545365238036050e-14  8.7980760300800255e-15  2.1481509251037520e-15  7.3533264089442189e-17  -3.6302612657603825e-17  -6.8454076960926680e-18  -2.4012346594462176e-19  1.0997913294343780e-19  2.3218819314680979e-20  1.8834761206588293e-21  -5.5647429232515652e-23  -3.2794790750684518e-23  -4.0823268023260937e-24  -2.6678686400168502e-25  -7.3050676861445714e-27  2.3982593273236146e-28  2.6202245826382725e-29  2.3155627968093006e-31  -1.0644300349105454e-31  -6.4169123459580873e-33  4.8559374072019042e-34  5.1471515993760441e-35  -2.6232428125776830e-36  -2.3065424029764064e-37  1.8647864918145037e-38  3.1420805206872352e-40  -1.0289738698578952e-40  4.4784186541836276e-42  1.9912439093678297e-43  -3.4368277939499904e-44  1.6636696549758329e-45  2.4111345893070133e-47  -9.8670532439135681e-48  7.8326802852708361e-49  -2.7851947999327951e-50  -1.0334115359104626e-51  2.5021848007829852e-52  -2.1834705056713580e-53  1.1250814401776532e-54  -1.6360628746059404e-56  -3.7709071467354534e-57  5.6375449621735722e-58  -5.3997942181404848e-59  3.8257858444371791e-60  -1.5779902877526808e-61  -5.6340128834858938e-63  3.1259314191663973e-63  3.4080317900830153e-06  2.9779669484066009e-06  4.2112468437347742e-06  3.8984018234175527e-06  2.2783898300042570e-06  8.1012483226414432e-07  2.2591117255192368e-07  4.1980101929818101e-08  5.1744447436296075e-09  -4.3888074664243315e-11  -2.1041010643664060e-10  -5.5816269018662499e-11  -7.4851110453931953e-12  -1.9636632783897736e-13  1.4168600628070513e-13  3.2542876819732528e-14  3.2200532544033909e-15  -1.4635426087735814e-17  -4.4863249851707120e-17  -3.1547000603526477e-18  8.1965344069380657e-19  2.1489629989249618e-19  1.7266628762648639e-20  -1.3326230138396589e-21  -4.5824921181928503e-22  -3.8185282146808656e-23  1.6998669019365150e-24  7.1145520657921588e-25  7.3739256979441393e-26  3.4541084087930412e-27  2.0526180438264587e-29  -4.4046379520293127e-30  -2.3794083549805887e-31  -2.5465302210836747e-32  -4.7301796923544660e-34  1.8446957118145742e-34  2.7114941552353415e-36  -9.4052013209014388e-37  1.9977159238813146e-38  3.2333884117949244e-39  -2.6646887021098370e-40  2.1018188402520223e-42  1.0368422311126681e-42  -8.7504584605428222e-44  2.6400276470372090e-45  1.7713837623179489e-46  -3.1815466123316470e-47  2.3551189645759113e-48  -7.0617745737944952e-50  -5.9198436222693157e-51  1.0935716407238196e-51  -9.0646959882058785e-53  3.9136813149141667e-54  8.3901115572808472e-56  -3.2635896984206747e-56  3.3945485933928312e-57  -2.2856389955725598e-58  9.5683633580317516e-60  1.0966094204428161e-61  -8.5640682570234095e-62  2.1201822749407920e-62  1.3532202304407834e-06  1.2549766573208963e-06  1.5816611458341176e-06  1.4351903994109743e-06  8.3562071573475223e-07  2.9561603028343490e-07  7.2091815278051084e-08  9.1387539245937994e-09  -5.3860228642221642e-10  -6.3266301464022498e-10  -1.6753616923109995e-10  -1.9800332132241720e-11  1.5640191235097589e-12  1.1623971416459520e-12  2.3604289833429259e-13  2.0140584010906014e-14  -1.9637777698945894e-15  -8.9320393414123959e-16  -1.2779506085010881e-16  -5.3590651520298611e-18  1.1617842315113765e-18  1.8468795191284155e-19  -4.9957713195807299e-21  -4.0580232256439868e-21  -2.7164196380278678e-22  6.3455858259565808e-23  1.4618668992006816e-23  9.0462296700530954e-25  -9.0191898564779576e-26  -2.0471585199263031e-26  -1.2777690997032255e-27  1.9361983750174834e-29  5.5679145309480695e-30  -2.0263635211345023e-32  -2.5602580164506536e-32  3.0484284345656314e-35  9.9110649370414969e-35  -1.3124101341124489e-36  -2.7788779564243821e-37  1.2571600404462527e-38  3.0224112613556605e-40  -4.3470807510516272e-41  1.0990650423992395e-42  -3.7064975658776885e-44  5.9424063254697507e-45  5.9175224291695834e-47  -8.3897188902293022e-47  9.1820375866582325e-48  -3.4728911066897665e-49  -3.0563004332701069e-50  5.6305929363375069e-51  -4.1061202269723872e-52  1.0269287548466766e-53  1.4065731027661315e-54  -2.2645736293568007e-55  1.7658608286917404e-56  -7.2519031071694442e-58  -1.5537833780673291e-59  5.9872515001848995e-60  -6.5877162524440349e-61  9.2809391361035989e-62  7.8460231931060065e-07  8.1937476671867272e-07  8.5566374317490288e-07  7.4520199164648921e-07  4.2098924798709242e-07  1.3901249086430557e-07  2.5282794637995538e-08  -8.0359122737022855e-10  -1.9397043653258952e-09  -6.0998118407056394e-10  -8.2460941153907227e-11  8.2743149309617667e-12  6.6210313524510974e-12  1.4867300956955788e-12  1.2700608773295229e-13  -2.2640982933597057e-14  -9.8566178799152290e-15  -1.6354314647487635e-15  -1.0039445063093563e-16  1.6523292998416535e-17  4.7529120986326809e-18  4.4417656389198743e-19  -6.0248744323026536e-21  -3.4482391848059921e-21  6.1278518513435777e-22  2.3425438104546585e-22  2.1878538860983058e-23  -1.5692681408994412e-24  -5.6901457477914532e-25  -4.3608889185685712e-26  2.5049617331297197e-27  7.3148249659736256e-28  4.7678399310694140e-29  -6.6844983740884207e-31  -2.1516918476012659e-31  -2.1608064775135040e-33  6.8719166932692556e-34  1.5961448104163287e-36  -2.3443712214277544e-36  4.1513679959876941e-38  6.4301190887587546e-39  -2.4916337140717602e-40  -9.4304327900565137e-42  5.4933096648982029e-43  3.2142791899335640e-44  -1.7547656956829630e-45  -3.5447935343047678e-46  4.2809642255950724e-47  -7.8910202068199676e-49  -2.3378724141888137e-49  2.8774490061245181e-50  -1.4314573319150626e-51  -3.5676225260171339e-53  1.2747183536229277e-53  -1.1832163574717018e-54  5.7672294162881180e-56  4.7872290084804963e-58  -4.0881930106304051e-58  4.5199295148368119e-59  -2.9552628426086219e-60  1.8921113354545616e-61  </DataArray> 
</PointData> 
</Piece>
</UnstructuredGrid>
</VTKFile>