<?xml version="1.0"?>
<VTKFile type="UnstructuredGrid"  version="0.1"  >
<UnstructuredGrid>
<Piece  NumberOfPoints="670" NumberOfCells="1192">
<Points>
<DataArray  type="Float64"  NumberOfComponents="3"  format="ascii">0 0 0  0.04 -1.31357e-10 0  0.0400579 0.0400582 0  0 0.04 0  0.08 -2.62713e-10 0  0.080123 0.0401093 0  0.12 -3.9407e-10 0  0.120183 0.040127 0  0.16 -5.25427e-10 0  0.160176 0.0400597 0  0.2 -6.56784e-10 0  0.199997 0.0399142 0  0.24 -7.8814e-10 0  0.239816 0.0400642 0  0.28 -9.19497e-10 0  0.279804 0.0401377 0  0.32 -1.05085e-09 0  0.319855 0.0401297 0  0.36 -1.18221e-09 0  0.359906 0.0400945 0  0.4 -1.31357e-09 0  0.399941 0.0400609 0  0.44 -1.44492e-09 0  0.439962 0.0400367 0  0.48 -1.57628e-09 0  0.479975 0.0400214 0  0.52 -1.70764e-09 0  0.519983 0.0400122 0  0.5600000000000001 -1.83899e-09 0  0.559987 0.0400069 0  0.6 -1.97035e-09 0  0.59999 0.040004 0  0.64 -2.10171e-09 0  0.639993 0.0400023 0  0.68 -2.23306e-09 0  0.679994 0.0400013 0  0.72 -2.36442e-09 0  0.7199950000000001 0.0400008 0  0.76 -2.49578e-09 0  0.759996 0.0400005 0  0.8 -2.62713e-09 0  0.799997 0.0400002 0  0.84 -2.75849e-09 0  0.839997 0.0400001 0  0.88 -2.88985e-09 0  0.8799979999999999 0.04 0  0.92 -3.0212e-09 0  0.919999 0.0399999 0  0.96 -3.15256e-09 0  0.959999 0.0399998 0  1 -3.28392e-09 0  1 0.0399998 0  1.04 -3.41527e-09 0  1.04 0.0399998 0  1.08 -3.54663e-09 0  1.08 0.0399998 0  1.12 -3.67799e-09 0  1.12 0.0399998 0  1.16 -3.80934e-09 0  1.16 0.0399999 0  1.2 -3.9407e-09 0  1.2 0.04 0  1.24 -4.07206e-09 0  1.24 0.04 0  1.28 -4.20341e-09 0  1.28 0.0400001 0  1.32 -4.33477e-09 0  1.32 0.0400001 0  1.36 -4.46613e-09 0  1.36 0.04 0  1.4 -4.59748e-09 0  1.4 0.04 0  1.44 -4.72884e-09 0  1.44 0.04 0  1.48 -4.8602e-09 0  1.48 0.04 0  1.52 -4.99156e-09 0  1.52 0.04 0  1.56 -5.12291e-09 0  1.56 0.04 0  1.6 -5.25427e-09 0  1.6 0.0400001 0  1.64 -5.38563e-09 0  1.64 0.0400001 0  1.68 -5.51698e-09 0  1.68 0.04 0  1.72 -5.64834e-09 0  1.72 0.04 0  1.76 -5.7797e-09 0  1.76 0.04 0  1.8 -5.91105e-09 0  1.8 0.04 0  1.84 -6.04241e-09 0  1.84 0.04 0  1.88 -6.17377e-09 0  1.88 0.0400001 0  1.92 -6.30512e-09 0  1.92 0.0400001 0  1.96 -6.43648e-09 0  1.96 0.0400001 0  2 -6.56784e-09 0  2 0.0400001 0  2.04 -6.69919e-09 0  2.04 0.0400001 0  2.08 -6.83055e-09 0  2.08 0.04 0  2.12 -6.96191e-09 0  2.12 0.04 0  2.16 -7.09326e-09 0  2.16 0.0400001 0  2.2 -7.22462e-09 0  2.2 0.04 0  2.24 -7.35598e-09 0  2.24 0.04 0  2.28 -7.48733e-09 0  2.28 0.0399999 0  2.32 -7.618690000000001e-09 0  2.32 0.04 0  2.36 -7.750049999999999e-09 0  2.36 0.04 0  2.4 -7.8814e-09 0  2.4 0.04 0  0.0401088 0.0801235 0  0 0.08 0  0.0802509 0.0802518 0  0.120434 0.0803392 0  0.160522 0.0801977 0  0.199995 0.0795328 0  0.239464 0.0802049 0  0.279544 0.08035689999999999 0  0.319711 0.0802867 0  0.359828 0.08018740000000001 0  0.399896 0.0801123 0  0.439933 0.0800646 0  0.479955 0.0800365 0  0.519968 0.08002049999999999 0  0.559976 0.0800116 0  0.599982 0.0800066 0  0.6399860000000001 0.0800039 0  0.679989 0.0800023 0  0.719991 0.0800014 0  0.759992 0.0800008 0  0.799994 0.0800004 0  0.839995 0.08000019999999999 0  0.879996 0.0799999 0  0.919997 0.07999970000000001 0  0.959999 0.0799996 0  1 0.0799995 0  1.04 0.0799995 0  1.08 0.0799996 0  1.12 0.07999970000000001 0  1.16 0.0799998 0  1.2 0.08 0  1.24 0.0800001 0  1.28 0.0800001 0  1.32 0.0800001 0  1.36 0.08 0  1.4 0.0799999 0  1.44 0.0799999 0  1.48 0.0799999 0  1.52 0.0799999 0  1.56 0.08 0  1.6 0.0800001 0  1.64 0.0800001 0  1.68 0.08 0  1.72 0.0799999 0  1.76 0.0799999 0  1.8 0.0799999 0  1.84 0.0799999 0  1.88 0.08 0  1.92 0.0800001 0  1.96 0.0800001 0  2 0.0800001 0  2.04 0.08 0  2.08 0.0799999 0  2.12 0.0799999 0  2.16 0.08 0  2.2 0.08 0  2.24 0.0799999 0  2.28 0.0799998 0  2.32 0.0799999 0  2.36 0.0799999 0  2.4 0.08 0  0.0401262 0.120184 0  0 0.12 0  0.0803378 0.120435 0  0.120779 0.12078 0  0.161485 0.120859 0  0.199996 0.117814 0  0.238503 0.120866 0  0.279195 0.120798 0  0.319616 0.120473 0  0.359799 0.120256 0  0.39988 0.120136 0  0.439921 0.120073 0  0.479944 0.120039 0  0.519958 0.120022 0  0.5599690000000001 0.120012 0  0.599976 0.120007 0  0.639981 0.120004 0  0.679985 0.120002 0  0.719987 0.120002 0  0.7599900000000001 0.120001 0  0.799991 0.12 0  0.839993 0.12 0  0.879995 0.12 0  0.919996 0.12 0  0.959998 0.119999 0  1 0.119999 0  1.04 0.119999 0  1.08 0.119999 0  1.12 0.12 0  1.16 0.12 0  1.2 0.12 0  1.24 0.12 0  1.28 0.12 0  1.32 0.12 0  1.36 0.12 0  1.4 0.12 0  1.44 0.12 0  1.48 0.12 0  1.52 0.12 0  1.56 0.12 0  1.6 0.12 0  1.64 0.12 0  1.68 0.12 0  1.72 0.12 0  1.76 0.12 0  1.8 0.12 0  1.84 0.12 0  1.88 0.12 0  1.92 0.12 0  1.96 0.12 0  2 0.12 0  2.04 0.12 0  2.08 0.12 0  2.12 0.12 0  2.16 0.12 0  2.2 0.12 0  2.24 0.12 0  2.28 0.12 0  2.32 0.12 0  2.36 0.12 0  2.4 0.12 0  0.0400582 0.160177 0  0 0.16 0  0.0801954 0.160525 0  0.120857 0.161488 0  0.164645 0.164645 0  0.2 0.15 0  0.235355 0.164645 0  0.279119 0.161498 0  0.319759 0.16055 0  0.359874 0.160228 0  0.399906 0.160104 0  0.439925 0.160051 0  0.479941 0.160027 0  0.519954 0.160014 0  0.559964 0.160008 0  0.5999719999999999 0.160005 0  0.639978 0.160003 0  0.679982 0.160002 0  0.719985 0.160001 0  0.759988 0.160001 0  0.79999 0.16 0  0.839992 0.16 0  0.8799940000000001 0.16 0  0.919996 0.159999 0  0.959998 0.159999 0  1 0.159999 0  1.04 0.159999 0  1.08 0.159999 0  1.12 0.16 0  1.16 0.16 0  1.2 0.16 0  1.24 0.16 0  1.28 0.16 0  1.32 0.16 0  1.36 0.16 0  1.4 0.16 0  1.44 0.16 0  1.48 0.16 0  1.52 0.16 0  1.56 0.16 0  1.6 0.16 0  1.64 0.16 0  1.68 0.16 0  1.72 0.16 0  1.76 0.16 0  1.8 0.16 0  1.84 0.16 0  1.88 0.16 0  1.92 0.16 0  1.96 0.16 0  2 0.16 0  2.04 0.16 0  2.08 0.16 0  2.12 0.16 0  2.16 0.16 0  2.2 0.16 0  2.24 0.16 0  2.28 0.16 0  2.32 0.16 0  2.36 0.16 0  2.4 0.16 0  0.0399111 0.2 0  0 0.2 0  0.0795281 0.2 0  0.117811 0.2 0  0.15 0.2 0  0.282167 0.2 0  0.25 0.2 0  0.320429 0.2 0  0.36003 0.200001 0  0.399944 0.200001 0  0.439934 0.200001 0  0.479942 0.200001 0  0.519953 0.200001 0  0.559963 0.200001 0  0.59997 0.200001 0  0.639976 0.200001 0  0.6799809999999999 0.200001 0  0.719984 0.200001 0  0.759987 0.200001 0  0.799989 0.2 0  0.839991 0.2 0  0.879993 0.2 0  0.919996 0.199999 0  0.959998 0.199999 0  1 0.199999 0  1.04 0.199999 0  1.08 0.199999 0  1.12 0.2 0  1.16 0.2 0  1.2 0.2 0  1.24 0.2 0  1.28 0.2 0  1.32 0.2 0  1.36 0.2 0  1.4 0.2 0  1.44 0.2 0  1.48 0.2 0  1.52 0.2 0  1.56 0.2 0  1.6 0.2 0  1.64 0.2 0  1.68 0.2 0  1.72 0.2 0  1.76 0.2 0  1.8 0.2 0  1.84 0.2 0  1.88 0.2 0  1.92 0.2 0  1.96 0.2 0  2 0.2 0  2.04 0.2 0  2.08 0.2 0  2.12 0.2 0  2.16 0.2 0  2.2 0.2 0  2.24 0.2 0  2.28 0.2 0  2.32 0.2 0  2.36 0.2 0  2.4 0.2 0  0.0400582 0.239823 0  0 0.24 0  0.0801953 0.239475 0  0.120857 0.238513 0  0.164645 0.235355 0  0.279119 0.238502 0  0.235355 0.235355 0  0.319759 0.239451 0  0.359873 0.239774 0  0.399905 0.239898 0  0.439925 0.239951 0  0.479941 0.239976 0  0.519954 0.239988 0  0.559964 0.239994 0  0.5999719999999999 0.239997 0  0.639977 0.239999 0  0.679982 0.24 0  0.719985 0.24 0  0.759987 0.24 0  0.79999 0.24 0  0.839992 0.24 0  0.8799940000000001 0.24 0  0.919996 0.239999 0  0.959998 0.239999 0  1 0.239999 0  1.04 0.239999 0  1.08 0.239999 0  1.12 0.24 0  1.16 0.24 0  1.2 0.24 0  1.24 0.24 0  1.28 0.24 0  1.32 0.24 0  1.36 0.24 0  1.4 0.24 0  1.44 0.24 0  1.48 0.24 0  1.52 0.24 0  1.56 0.24 0  1.6 0.24 0  1.64 0.24 0  1.68 0.24 0  1.72 0.24 0  1.76 0.24 0  1.8 0.24 0  1.84 0.24 0  1.88 0.24 0  1.92 0.24 0  1.96 0.24 0  2 0.24 0  2.04 0.24 0  2.08 0.24 0  2.12 0.24 0  2.16 0.24 0  2.2 0.24 0  2.24 0.24 0  2.28 0.24 0  2.32 0.24 0  2.36 0.24 0  2.4 0.24 0  0.0401261 0.279816 0  0 0.28 0  0.0803376 0.279565 0  0.120778 0.27922 0  0.161485 0.279141 0  0.2 0.25 0  0.199996 0.282186 0  0.238503 0.279135 0  0.279195 0.279202 0  0.319616 0.279528 0  0.359799 0.279745 0  0.39988 0.279865 0  0.43992 0.279929 0  0.479944 0.279962 0  0.519958 0.27998 0  0.559968 0.27999 0  0.599976 0.279995 0  0.639981 0.279998 0  0.679984 0.279999 0  0.719987 0.28 0  0.759989 0.28 0  0.799991 0.28 0  0.839993 0.28 0  0.879995 0.28 0  0.919997 0.279999 0  0.959998 0.279999 0  1 0.279999 0  1.04 0.279999 0  1.08 0.28 0  1.12 0.28 0  1.16 0.28 0  1.2 0.28 0  1.24 0.28 0  1.28 0.28 0  1.32 0.28 0  1.36 0.28 0  1.4 0.28 0  1.44 0.28 0  1.48 0.28 0  1.52 0.28 0  1.56 0.28 0  1.6 0.28 0  1.64 0.28 0  1.68 0.28 0  1.72 0.28 0  1.76 0.28 0  1.8 0.28 0  1.84 0.28 0  1.88 0.28 0  1.92 0.28 0  1.96 0.28 0  2 0.28 0  2.04 0.28 0  2.08 0.28 0  2.12 0.28 0  2.16 0.28 0  2.2 0.28 0  2.24 0.28 0  2.28 0.28 0  2.32 0.28 0  2.36 0.28 0  2.4 0.28 0  0.0401086 0.319877 0  0 0.32 0  0.08025060000000001 0.319748 0  0.120433 0.319661 0  0.160522 0.319802 0  0.199995 0.320467 0  0.239464 0.319795 0  0.279543 0.319643 0  0.31971 0.319714 0  0.359828 0.319813 0  0.399895 0.319889 0  0.439933 0.319937 0  0.479955 0.319965 0  0.519968 0.319981 0  0.559976 0.31999 0  0.599982 0.319995 0  0.6399860000000001 0.319998 0  0.679989 0.319999 0  0.719991 0.32 0  0.759992 0.32 0  0.799994 0.32 0  0.839995 0.32 0  0.879996 0.32 0  0.919998 0.32 0  0.959999 0.32 0  1 0.32 0  1.04 0.32 0  1.08 0.32 0  1.12 0.32 0  1.16 0.32 0  1.2 0.32 0  1.24 0.32 0  1.28 0.32 0  1.32 0.32 0  1.36 0.32 0  1.4 0.32 0  1.44 0.32 0  1.48 0.32 0  1.52 0.32 0  1.56 0.32 0  1.6 0.32 0  1.64 0.32 0  1.68 0.32 0  1.72 0.32 0  1.76 0.32 0  1.8 0.32 0  1.84 0.32 0  1.88 0.32 0  1.92 0.32 0  1.96 0.32 0  2 0.32 0  2.04 0.32 0  2.08 0.32 0  2.12 0.32 0  2.16 0.32 0  2.2 0.32 0  2.24 0.32 0  2.28 0.32 0  2.32 0.32 0  2.36 0.32 0  2.4 0.32 0  0.0400579 0.359942 0  0 0.36 0  0.0801229 0.359891 0  0.120183 0.359873 0  0.160175 0.35994 0  0.199997 0.360086 0  0.239816 0.359936 0  0.279804 0.359862 0  0.319855 0.359871 0  0.359906 0.359906 0  0.399941 0.35994 0  0.439962 0.359964 0  0.479975 0.359979 0  0.5199820000000001 0.359989 0  0.559987 0.359994 0  0.59999 0.359997 0  0.639993 0.359998 0  0.679994 0.359999 0  0.7199950000000001 0.36 0  0.759996 0.36 0  0.799997 0.36 0  0.839997 0.36 0  0.8799979999999999 0.36 0  0
[...]
<PointData  Scalars="f_10391-2"> 
<DataArray  type="Float64"  Name="f_10391-2"  format="ascii">5.3441431580956559e-05  5.4084045214226100e-05  6.1637247240297008e-05  6.1283740888534241e-05  5.1124667881538235e-05  5.9096227430921512e-05  4.2389348936662351e-05  4.9120740472149258e-05  3.0119991425035155e-05  3.4302650875666621e-05  1.8702809341426480e-05  2.0777606582912129e-05  1.0413697680989531e-05  1.1281479531424737e-05  5.3389154490971533e-06  5.6649181529351044e-06  2.5588626376949982e-06  2.6738832829991161e-06  1.1532504773350226e-06  1.1910277587080571e-06  4.8912094319985897e-07  4.9983292000758725e-07  1.9496824962370274e-07  1.9701291071389436e-07  7.2909911951911578e-08  7.2712280832135404e-08  2.5535561710463185e-08  2.5064086997821755e-08  8.3638584159518100e-09  8.0514861595642021e-09  2.5588138530482906e-09  2.4051975335962135e-09  7.3042504678657476e-10  6.6668879022855454e-10  1.9434491362480600e-10  1.7106206174514327e-10  4.8149410217603397e-11  4.0502805035022135e-11  1.1095448139151318e-11  8.8133678209658931e-12  2.3749777763979813e-12  1.7522276801778858e-12  4.7139659722319270e-13  3.1545310913207977e-13  8.6557694042199386e-14  5.0637236778413943e-14  1.4652237196055481e-14  7.0352645970636694e-15  2.2740955158928395e-15  7.8771880292087941e-16  3.2071630884564853e-16  5.4186976372839554e-17  4.0443444259702161e-17  -3.3122406285138199e-18  4.4160754392221410e-18  -2.1162426723790073e-18  3.8588808926096592e-19  -4.8983087201297590e-19  1.9724887186369290e-20  -8.3094573267636704e-20  -1.3230376861186692e-21  -1.1305629891766981e-20  -5.4913083634260943e-22  -1.2141620610421587e-21  -9.1820130444272749e-23  -8.7398853164740962e-23  -1.0330804285573743e-23  4.1712149468912998e-25  -6.7498665333089372e-25  1.4948721289891979e-24  2.7320869274344992e-26  3.1223053743039519e-25  1.6823783040498777e-26  4.1828027953921130e-26  3.0683861790534985e-27  3.6944038622136982e-27  3.6213580171017554e-28  8.4176192625906669e-29  2.4709915993962446e-29  -4.3788623633105167e-29  -7.9594925740166796e-31  -1.0511065096235877e-29  -5.5248148333853760e-31  -1.4447659927169388e-30  -9.6660217585553117e-32  -1.2253967820099059e-31  -1.0223317264537922e-32  -1.2866431872034443e-33  -4.7601785243222451e-34  1.6921583812054782e-33  6.4241513342790145e-35  3.4718802720426685e-34  1.8772070408025194e-35  3.9801267673171577e-35  2.4410158819970547e-36  2.1635602443219325e-36  1.6461559421937781e-37  -1.9020125273315470e-37  -4.9454705938818544e-39  -6.3945541006212899e-38  -2.9458205126911311e-39  -8.2786844647743179e-39  -4.0626757137067863e-40  -5.2269035721950045e-40  -2.7180450908743153e-41  2.1052103795439298e-41  6.1054543377455134e-43  9.4876376464767368e-42  3.8555488475282062e-43  1.1594985163010709e-42  4.8178778754714327e-44  6.3530258531956958e-44  3.0179704253959787e-45  -2.5771204638316301e-45  1.7866231147620368e-47  -8.2740522361804749e-46  -1.3478418165606778e-47  -6.6171126560594330e-47  -8.5131367653275065e-49  -3.6919446773113525e-49  1.1681425040567722e-49  8.5419820937842281e-49  8.1049447145773793e-05  7.9545369911307543e-05  8.0620108432507192e-05  6.8290917678158681e-05  4.6581185490489654e-05  2.6790721744684640e-05  1.3762991022952903e-05  6.6450813163027047e-06  3.0736093268474093e-06  1.3561716655899632e-06  5.6608832253012019e-07  2.2210988795719917e-07  8.1562108023980662e-08  2.7952152039984696e-08  8.9208212206920225e-09  2.6461200468585628e-09  7.2813799927748763e-10  1.8548560850853179e-10  4.3638144334700041e-11  9.4550560025475107e-12  1.8800568215395620e-12  3.4166120665123856e-13  5.6451442189786720e-14  8.4300203102290533e-15  1.1316540916853408e-15  1.3673763593716472e-16  1.5287679147739906e-17  1.7488914243027725e-18  2.4496435294778639e-19  4.4059885591876629e-20  8.6011349384649717e-21  1.5741470281679709e-21  2.5413326108393473e-22  3.5097684468935509e-23  3.9576078465723756e-24  3.1526869639986486e-25  4.0945717189508773e-27  -4.4356215533128053e-27  -1.0439712589529081e-27  -1.5155730537798234e-28  -1.4880044880836141e-29  -5.9975072731013342e-31  1.2495209463722305e-31  3.6059810810022908e-32  5.3208279065708802e-33  4.8270024345089415e-34  9.9807452870720342e-36  -5.6289731043927523e-36  -1.2061738463627936e-36  -1.3612958622739662e-37  -6.7461038159725306e-39  7.2117369743445288e-40  2.0607880534930311e-40  2.3211688865655656e-41  1.0382595728198143e-42  -1.0531780214856756e-43  -2.3188514795393657e-44  -1.5376507013332232e-45  8.2124090470452281e-47  2.7592422164969654e-47  5.0866933572104999e-48  1.0344712204829859e-04  1.0098350771862813e-04  1.0537949169020965e-04  9.2480461294904898e-05  6.3874456732440461e-05  3.4484525544309044e-05  1.6412632847954418e-05  7.6182900389931792e-06  3.5045042127521531e-06  1.5513514418814593e-06  6.4904936043339591e-07  2.5449956406844155e-07  9.3168774131821322e-08  3.1776316069908529e-08  1.0079788126516699e-08  2.9693752133473318e-09  8.1090329552492939e-10  2.0486579031042325e-10  4.7767659857951001e-11  1.0247659440676655e-11  2.0155297044552273e-12  3.6165553346934107e-13  5.8819270557622109e-14  8.5902156681314017e-15  1.1098576544879941e-15  1.2351874577034475e-16  1.1144365067764163e-17  6.5401853213221776e-19  -1.9731499092331089e-20  -1.5342609024253223e-20  -3.7387528838995281e-21  -7.8418677524888063e-22  -1.5785655488113441e-22  -3.0171973540655407e-23  -5.3015120141582386e-24  -8.3255605042592256e-25  -1.1348810075673806e-25  -1.2747315521738982e-26  -1.0115585754628144e-27  -1.0292575754719801e-29  1.5369925092096534e-29  3.6234771271843062e-30  5.3296099712118840e-31  5.3319093583209377e-32  2.2744311961583243e-33  -4.2693041299676003e-34  -1.2618361067508721e-34  -1.8421828721910849e-35  -1.5901077427899256e-36  -1.5396549136132128e-38  2.1101736497913661e-38  3.9390442263623713e-39  3.7017912113783127e-40  6.9843450243723080e-42  -3.6276964137304905e-42  -5.9560239386748190e-43  -3.4625015845456430e-44  3.1574929188527682e-45  9.0713099060688639e-46  8.9255727272678658e-47  3.4237674639429687e-48  1.1969604633056399e-04  1.1726397166594355e-04  1.2201220459175066e-04  1.1192908146871176e-04  8.5451525810340085e-05  3.8874597912970634e-05  1.5269190955385411e-05  7.5441787011725383e-06  3.6757312162499141e-06  1.6786659750896934e-06  7.1159634126627916e-07  2.7990341891109090e-07  1.0224336817201280e-07  3.4691283431549711e-08  1.0928042034977619e-08  3.1921243445599434e-09  8.6314533341341451e-10  2.1556206112178864e-10  4.9575388426016819e-11  1.0459754239749094e-11  2.0146175553436093e-12  3.5174124572215765e-13  5.5085700815977866e-14  7.6034356963633626e-15  8.9409098989375889e-16  8.2380352059147023e-17  4.1701864285871933e-18  -3.9550041940145416e-19  -1.5467552148147825e-19  -2.7903069754814472e-20  -3.6868351877325203e-21  -3.5400253620493007e-22  -1.1268467498319007e-23  5.9006764214732696e-24  2.1811082472578719e-24  5.3154937846040535e-25  1.0748952103146009e-25  1.8906475774907890e-26  2.9086218059059572e-27  3.8463173283565403e-28  4.1407691156784763e-29  2.9982338119462905e-30  -3.4058233306651328e-32  -6.0646020830693498e-32  -1.3061892603221831e-32  -1.8319744260116336e-33  -1.7115590342999175e-34  -4.8564715941339506e-36  1.9042577394256680e-36  4.6568470713176455e-37  5.9815846582231497e-38  3.8309672580219771e-39  -2.3703041379093317e-40  -9.9347332144017652e-41  -1.3050410748012136e-41  -6.3697029785706482e-43  9.3445420397024353e-44  2.4525697110530708e-44  2.6016328750664076e-45  8.9209458401631596e-47  -3.3737237367666318e-47  1.2627786578007813e-04  1.2379551866151990e-04  1.2818619498081103e-04  1.2061788880264119e-04  1.0842995498080150e-04  6.6306605486063946e-06  9.9762666584672721e-06  3.6140395574493275e-06  1.7118918051694363e-06  7.3293227072804320e-07  2.8830464045071195e-07  1.0487474224625717e-07  3.5357279925149148e-08  1.1048535122618696e-08  3.1964390146207224e-09  8.5439712982137769e-10  2.1041188663128335e-10  4.7567398881990654e-11  9.8219106380352291e-12  1.8398267232205729e-12  3.0945017398717289e-13  4.5965962206688083e-14  5.8470933034874802e-15  5.9376604326871025e-16  3.7517320837480307e-17  -1.4382955368029635e-18  -9.0516253394444518e-19  -1.6289876050632463e-19  -1.7775124651545593e-20  -6.1604967613049950e-22  2.6129219075214378e-22  8.3808799621490632e-23  1.6319459274272324e-23  2.4159985999079753e-24  2.5864051819285212e-25  9.0366373954547816e-27  -4.7163940814705783e-27  -1.7068117531009300e-27  -3.8751373559182895e-28  -7.0164442112802267e-29  -1.0655936865891300e-29  -1.3519773793362815e-30  -1.3454902267249653e-31  -7.7934319417964105e-33  5.6163008712057995e-34  2.6576296386291518e-34  5.0049694041869022e-35  6.4018262337748915e-36  5.0379041848860837e-37  -6.9564927237421875e-39  -1.0471070561687525e-38  -2.0091686396595241e-39  -2.1460562893132180e-40  -6.8213773067584798e-42  2.3159314485315287e-42  5.3389931953324696e-43  5.9398457233337323e-44  2.6045549292133456e-45  -3.2396528823533520e-46  -1.5050079573546675e-46  1.2105174209222662e-04  1.1795687159621666e-04  1.2231981914841180e-04  1.0937969161705796e-04  8.2898636354916547e-05  7.6180923910964449e-06  1.5490883445274556e-05  3.7262623316150455e-06  1.6926645106746693e-06  7.1068907184765635e-07  2.7637282264688044e-07  9.9670006061122798e-08  3.3330262631095634e-08  1.0323367849821779e-08  2.9555778671682399e-09  7.8004710450347371e-10  1.8907395715145682e-10  4.1891322470101383e-11  8.4277787015267790e-12  1.5247606735972944e-12  2.4437978922538167e-13  3.3783881741039151e-14  3.8069138901905094e-15  2.9501527509692273e-16  1.1403174895392660e-18  -4.6068230000126398e-18  -9.4710475982545685e-19  -1.0614937375046426e-19  -2.7146496991534401e-21  1.8603138472122156e-21  5.2432980007089902e-22  8.6741566700405448e-23  9.2153256219280936e-24  1.8275096713287015e-25  -2.0041829673640252e-25  -6.1539490948521839e-26  -1.1926649432781630e-26  -1.6882090598969361e-27  -1.4966755634196327e-28  4.2697628871769951e-30  5.3944234310863874e-30  1.4380875315536896e-30  2.6993065172709352e-31  4.0370232344438093e-32  4.8699195843168689e-33  4.3939812105833020e-34  1.7810044350106365e-35  -3.5223982078158092e-36  -1.1331661371158908e-36  -1.9910623124242268e-37  -2.4889437207137165e-38  -1.9056149226509989e-39  4.6394126945592203e-41  4.5494349034456522e-41  8.6644540981814382e-42  9.6227154429400213e-43  4.7359465261730521e-44  -5.0332127268250305e-45  -1.3759626038750811e-45  -2.7867200304318109e-46  1.0336909770410244e-04  1.0015190749422034e-04  1.0502777972377468e-04  9.1255564419555154e-05  6.3258068709778667e-05  3.9886668226252168e-05  3.3638124031924819e-05  1.6590799513378810e-05  7.6909077564826928e-06  3.5322103296663823e-06  1.5496111864766675e-06  6.3893852867769500e-07  2.4588416463074064e-07  8.7997130022621800e-08  2.9212665780359335e-08  8.9719074903285029e-09  2.5415829413096392e-09  6.6169945534386265e-10  1.5758223288497997e-10  3.4110113435580999e-11  6.6515435775768576e-12  1.1526492903667813e-12  1.7345614821735969e-13  2.1652581942087216e-14  1.9876864068869423e-15  6.6951884140966209e-17  -1.9790624024135699e-17  -5.1498665167993145e-18  -6.4989292126033201e-19  -2.3906238931069009e-20  1.0349890082957020e-20  3.0912512612851667e-21  4.9926802255061347e-22  4.5970741261127590e-23  -1.2903361642751883e-24  -1.5649503056942637e-24  -3.8086330062333115e-25  -5.9299177137685920e-26  -5.4311475862829259e-27  2.0429003243967726e-28  2.1496336166189492e-28  5.4372386017829082e-29  9.0656052000451246e-30  9.9798415473536581e-31  2.8372517041889591e-32  -1.8377913568065240e-32  -5.6246575695514752e-33  -1.0468398879095490e-33  -1.4659722989112412e-34  -1.5873619023698413e-35  -1.2290478704950309e-36  -3.4167800507473661e-38  1.0472908485866888e-38  2.9693770725994318e-39  5.4209249940615758e-40  7.7848036678780095e-41  8.2029836340197650e-42  4.1682164891282451e-43  -4.8504458183440452e-44  -1.4470664814424307e-44  -1.6295230521346944e-45  -1.0660880707228314e-46  7.8847474764748740e-05  7.7123162266868223e-05  7.9165767686226917e-05  6.8419169163792088e-05  4.7287444060817892e-05  2.6746374025058488e-05  1.3792694516215967e-05  6.6087394145547422e-06  3.0389427748494442e-06  1.3259528668051482e-06  5.4377970105034800e-07  2.0825767401032755e-07  7.4156276172186328e-08  2.4463380005012451e-08  7.4506929416433241e-09  2.0868997501053210e-09  5.3507573483251774e-10  1.2482374225534007e-10  2.6273294196306511e-11  4.9282308390421445e-12  8.0716713322243150e-13  1.1112164161303176e-13  1.1739288499824426e-14  6.5266333814472954e-16  -7.0641895006049002e-17  -2.6486164098754267e-17  -3.9264462111353349e-18  -2.2135916376271114e-19  4.9213279752832058e-20  1.7540612212861959e-20  2.9800234080558383e-21  2.7249130194940386e-22  -1.1464480890614623e-23  -1.0368090403155229e-23  -2.3828948257883829e-24  -3.3848359880795186e-25  -2.2724087834249300e-26  3.5936501727767932e-27  1.6274300896267967e-27  3.3556214091000494e-28  4.3130565206881682e-29  1.8054487222227003e-30  -7.7741941433403546e-31  -2.6169646314888150e-31  -4.7818714219653911e-32  -5.4174955447975970e-33  -1.4602102824006636e-34  9.7557851991087209e-35  2.7282077563973457e-35  4.3631273949076641e-36  4.6016380766034003e-37  2.4614596416680771e-38  -1.5420587074213003e-39  -4.9421231123319097e-40  -4.7172152401300281e-41  -5.0942073579474681e-44  6.1809876592268814e-43  9.6732832377801867e-44  9.1647360764595505e-45  8.0208583785200671e-46  1.1515232921936975e-46  5.9439913072867163e-05  5.9471908694390201e-05  5.7585781429195424e-05  4.9356922629766254e-05  3.5082269404679758e-05  2.0985650442823263e-05  1.1266722277117058e-05  5.5785693241731991e-06  2.5959518160788273e-06  1.1352027344485403e-06  4.6466556091083282e-07  1.7724175779541654e-07  6.2737084974818880e-08  2.0525064548507766e-08  6.1799662294083840e-09  1.7041799445459187e-09  4.2774572151294561e-10  9.6923382616103805e-11  1.9585788692696253e-11  3.4613794982407121e-12  5.1604241641415693e-13  5.9709968437520293e-14  3.8946667128706290e-15  -3.1810564165182070e-16  -1.5049023104444554e-16  -2.5458311239333276e-17  -1.9801670641186375e-18  2.0470270255412024e-19  1.0146736698502514e-19  1.8937093221633882e-20  1.8589141184049444e-21  -6.3002813087192905e-23  -6.8470596577719769e-23  -1.5937309278818191e-23  -2.2218249349190558e-24  -1.3029832427397414e-25  2.9416651670818604e-26  1.1631962890060356e-26  2.2472531506321637e-27  2.5676098575243686e-28  1.4376166781760389e-30  -7.3738724371791493e-30  -2.0137756444102309e-30  -3.1223197727243430e-31  -2.1872646591472933e-32  3.5720571461793175e-33  1.5732300410635750e-33  3.0359027103717112e-34  3.3711778888541535e-35  3.8292951998935308e-37  -7.5316059892509238e-37  -1.8802505101516318e-37  -2.6698304551570130e-38  -2.0975642104028032e-39  5.1519989250737095e-41  4.5980826006617915e-41  8.0519148071264490e-42  8.2580316922344175e-43  3.9535797172620610e-44  -3.5075811044944466e-45  -2.1373133791078467e-45  5.2632566708895943e-05  5.3969451209278075e-05  4.9844981469462051e-05  4.2369657293916466e-05  3.0521184781408133e-05  1.8697300403893954e-05  1.0191643337840685e-05  5.0964649640875059e-06  2.3762127585774987e-06  1.0356144869010971e-06  4.2088219994351405e-07  1.5885596132855796e-07  5.5428079368944914e-08  1.7789470489812266e-08  5.2213049013089575e-09  1.3912021986997287e-09  3.3311997695476859e-10  7.0588427815726037e-11  1.2891636533353076e-11  1.9219122980380338e-12  1.9993416290745127e-13  2.9288269442581525e-15  -4.6948639121684067e-15  -1.3187742737934453e-15  -2.1272060104889626e-16  -1.8348105936169775e-17  1.0822187527839568e-18  7.4072961497924448e-19  1.4873851980694276e-19  1.5856207825565972e-20  -2.1986523362192233e-22  -4.9933363587516676e-22  -1.2052776173181564e-22  -1.6820734666997674e-23  -9.3344718702770571e-25  2.3905676257059569e-25  9.0622963501729259e-26  1.7205389402442883e-26  1.9286854874624544e-27  2.0001815648686833e-30  -5.8166890392536180e-29  -1.5733343736346803e-29  -2.4254202630060018e-30  -1.5927081816932667e-31  3.3216577714542836e-32  1.3759845354125144e-32  2.6016992464653323e-33  2.6284642670047838e-34  -8.9986618193210210e-36  -9.8256162448731967e-36  -2.2180469830249878e-36  -2.8778664622708309e-37  -1.4055435469030269e-38  3.4411647947636825e-39  1.0929878201909234e-39  1.7219632292173029e-40  1.6515085685733998e-41  4.9921192177170924e-43  -1.4874565552770779e-43  -3.3934285873435532e-44  -7.0823908783045649e-45  </DataArray> 
</PointData> 
</Piece>
</UnstructuredGrid>
</VTKFile>