<?xml version="1.0"?>
<VTKFile type="UnstructuredGrid"  version="0.1"  >
<UnstructuredGrid>
<Piece  NumberOfPoints="670" NumberOfCells="1192">
<Points>
<DataArray  type="Float64"  NumberOfComponents="3"  format="ascii">0 0 0  0.04 -1.31357e-10 0  0.0400579 0.0400582 0  0 0.04 0  0.08 -2.62713e-10 0  0.080123 0.0401093 0  0.12 -3.9407e-10 0  0.120183 0.040127 0  0.16 -5.25427e-10 0  0.160176 0.0400597 0  0.2 -6.56784e-10 0  0.199997 0.0399142 0  0.24 -7.8814e-10 0  0.239816 0.0400642 0  0.28 -9.19497e-10 0  0.279804 0.0401377 0  0.32 -1.05085e-09 0  0.319855 0.0401297 0  0.36 -1.18221e-09 0  0.359906 0.0400945 0  0.4 -1.31357e-09 0  0.399941 0.0400609 0  0.44 -1.44492e-09 0  0.439962 0.0400367 0  0.48 -1.57628e-09 0  0.479975 0.0400214 0  0.52 -1.70764e-09 0  0.519983 0.0400122 0  0.5600000000000001 -1.83899e-09 0  0.559987 0.0400069 0  0.6 -1.97035e-09 0  0.59999 0.040004 0  0.64 -2.10171e-09 0  0.639993 0.0400023 0  0.68 -2.23306e-09 0  0.679994 0.0400013 0  0.72 -2.36442e-09 0  0.7199950000000001 0.0400008 0  0.76 -2.49578e-09 0  0.759996 0.0400005 0  0.8 -2.62713e-09 0  0.799997 0.0400002 0  0.84 -2.75849e-09 0  0.839997 0.0400001 0  0.88 -2.88985e-09 0  0.8799979999999999 0.04 0  0.92 -3.0212e-09 0  0.919999 0.0399999 0  0.96 -3.15256e-09 0  0.959999 0.0399998 0  1 -3.28392e-09 0  1 0.0399998 0  1.04 -3.41527e-09 0  1.04 0.0399998 0  1.08 -3.54663e-09 0  1.08 0.0399998 0  1.12 -3.67799e-09 0  1.12 0.0399998 0  1.16 -3.80934e-09 0  1.16 0.0399999 0  1.2 -3.9407e-09 0  1.2 0.04 0  1.24 -4.07206e-09 0  1.24 0.04 0  1.28 -4.20341e-09 0  1.28 0.0400001 0  1.32 -4.33477e-09 0  1.32 0.0400001 0  1.36 -4.46613e-09 0  1.36 0.04 0  1.4 -4.59748e-09 0  1.4 0.04 0  1.44 -4.72884e-09 0  1.44 0.04 0  1.48 -4.8602e-09 0  1.48 0.04 0  1.52 -4.99156e-09 0  1.52 0.04 0  1.56 -5.12291e-09 0  1.56 0.04 0  1.6 -5.25427e-09 0  1.6 0.0400001 0  1.64 -5.38563e-09 0  1.64 0.0400001 0  1.68 -5.51698e-09 0  1.68 0.04 0  1.72 -5.64834e-09 0  1.72 0.04 0  1.76 -5.7797e-09 0  1.76 0.04 0  1.8 -5.91105e-09 0  1.8 0.04 0  1.84 -6.04241e-09 0  1.84 0.04 0  1.88 -6.17377e-09 0  1.88 0.0400001 0  1.92 -6.30512e-09 0  1.92 0.0400001 0  1.96 -6.43648e-09 0  1.96 0.0400001 0  2 -6.56784e-09 0  2 0.0400001 0  2.04 -6.69919e-09 0  2.04 0.0400001 0  2.08 -6.83055e-09 0  2.08 0.04 0  2.12 -6.96191e-09 0  2.12 0.04 0  2.16 -7.09326e-09 0  2.16 0.0400001 0  2.2 -7.22462e-09 0  2.2 0.04 0  2.24 -7.35598e-09 0  2.24 0.04 0  2.28 -7.48733e-09 0  2.28 0.0399999 0  2.32 -7.618690000000001e-09 0  2.32 0.04 0  2.36 -7.750049999999999e-09 0  2.36 0.04 0  2.4 -7.8814e-09 0  2.4 0.04 0  0.0401088 0.0801235 0  0 0.08 0  0.0802509 0.0802518 0  0.120434 0.0803392 0  0.160522 0.0801977 0  0.199995 0.0795328 0  0.239464 0.0802049 0  0.279544 0.08035689999999999 0  0.319711 0.0802867 0  0.359828 0.08018740000000001 0  0.399896 0.0801123 0  0.439933 0.0800646 0  0.479955 0.0800365 0  0.519968 0.08002049999999999 0  0.559976 0.0800116 0  0.599982 0.0800066 0  0.6399860000000001 0.0800039 0  0.679989 0.0800023 0  0.719991 0.0800014 0  0.759992 0.0800008 0  0.799994 0.0800004 0  0.839995 0.08000019999999999 0  0.879996 0.0799999 0  0.919997 0.07999970000000001 0  0.959999 0.0799996 0  1 0.0799995 0  1.04 0.0799995 0  1.08 0.0799996 0  1.12 0.07999970000000001 0  1.16 0.0799998 0  1.2 0.08 0  1.24 0.0800001 0  1.28 0.0800001 0  1.32 0.0800001 0  1.36 0.08 0  1.4 0.0799999 0  1.44 0.0799999 0  1.48 0.0799999 0  1.52 0.0799999 0  1.56 0.08 0  1.6 0.0800001 0  1.64 0.0800001 0  1.68 0.08 0  1.72 0.0799999 0  1.76 0.0799999 0  1.8 0.0799999 0  1.84 0.0799999 0  1.88 0.08 0  1.92 0.0800001 0  1.96 0.0800001 0  2 0.0800001 0  2.04 0.08 0  2.08 0.0799999 0  2.12 0.0799999 0  2.16 0.08 0  2.2 0.08 0  2.24 0.0799999 0  2.28 0.0799998 0  2.32 0.0799999 0  2.36 0.0799999 0  2.4 0.08 0  0.0401262 0.120184 0  0 0.12 0  0.0803378 0.120435 0  0.120779 0.12078 0  0.161485 0.120859 0  0.199996 0.117814 0  0.238503 0.120866 0  0.279195 0.120798 0  0.319616 0.120473 0  0.359799 0.120256 0  0.39988 0.120136 0  0.439921 0.120073 0  0.479944 0.120039 0  0.519958 0.120022 0  0.5599690000000001 0.120012 0  0.599976 0.120007 0  0.639981 0.120004 0  0.679985 0.120002 0  0.719987 0.120002 0  0.7599900000000001 0.120001 0  0.799991 0.12 0  0.839993 0.12 0  0.879995 0.12 0  0.919996 0.12 0  0.959998 0.119999 0  1 0.119999 0  1.04 0.119999 0  1.08 0.119999 0  1.12 0.12 0  1.16 0.12 0  1.2 0.12 0  1.24 0.12 0  1.28 0.12 0  1.32 0.12 0  1.36 0.12 0  1.4 0.12 0  1.44 0.12 0  1.48 0.12 0  1.52 0.12 0  1.56 0.12 0  1.6 0.12 0  1.64 0.12 0  1.68 0.12 0  1.72 0.12 0  1.76 0.12 0  1.8 0.12 0  1.84 0.12 0  1.88 0.12 0  1.92 0.12 0  1.96 0.12 0  2 0.12 0  2.04 0.12 0  2.08 0.12 0  2.12 0.12 0  2.16 0.12 0  2.2 0.12 0  2.24 0.12 0  2.28 0.12 0  2.32 0.12 0  2.36 0.12 0  2.4 0.12 0  0.0400582 0.160177 0  0 0.16 0  0.0801954 0.160525 0  0.120857 0.161488 0  0.164645 0.164645 0  0.2 0.15 0  0.235355 0.164645 0  0.279119 0.161498 0  0.319759 0.16055 0  0.359874 0.160228 0  0.399906 0.160104 0  0.439925 0.160051 0  0.479941 0.160027 0  0.519954 0.160014 0  0.559964 0.160008 0  0.5999719999999999 0.160005 0  0.639978 0.160003 0  0.679982 0.160002 0  0.719985 0.160001 0  0.759988 0.160001 0  0.79999 0.16 0  0.839992 0.16 0  0.8799940000000001 0.16 0  0.919996 0.159999 0  0.959998 0.159999 0  1 0.159999 0  1.04 0.159999 0  1.08 0.159999 0  1.12 0.16 0  1.16 0.16 0  1.2 0.16 0  1.24 0.16 0  1.28 0.16 0  1.32 0.16 0  1.36 0.16 0  1.4 0.16 0  1.44 0.16 0  1.48 0.16 0  1.52 0.16 0  1.56 0.16 0  1.6 0.16 0  1.64 0.16 0  1.68 0.16 0  1.72 0.16 0  1.76 0.16 0  1.8 0.16 0  1.84 0.16 0  1.88 0.16 0  1.92 0.16 0  1.96 0.16 0  2 0.16 0  2.04 0.16 0  2.08 0.16 0  2.12 0.16 0  2.16 0.16 0  2.2 0.16 0  2.24 0.16 0  2.28 0.16 0  2.32 0.16 0  2.36 0.16 0  2.4 0.16 0  0.0399111 0.2 0  0 0.2 0  0.0795281 0.2 0  0.117811 0.2 0  0.15 0.2 0  0.282167 0.2 0  0.25 0.2 0  0.320429 0.2 0  0.36003 0.200001 0  0.399944 0.200001 0  0.439934 0.200001 0  0.479942 0.200001 0  0.519953 0.200001 0  0.559963 0.200001 0  0.59997 0.200001 0  0.639976 0.200001 0  0.6799809999999999 0.200001 0  0.719984 0.200001 0  0.759987 0.200001 0  0.799989 0.2 0  0.839991 0.2 0  0.879993 0.2 0  0.919996 0.199999 0  0.959998 0.199999 0  1 0.199999 0  1.04 0.199999 0  1.08 0.199999 0  1.12 0.2 0  1.16 0.2 0  1.2 0.2 0  1.24 0.2 0  1.28 0.2 0  1.32 0.2 0  1.36 0.2 0  1.4 0.2 0  1.44 0.2 0  1.48 0.2 0  1.52 0.2 0  1.56 0.2 0  1.6 0.2 0  1.64 0.2 0  1.68 0.2 0  1.72 0.2 0  1.76 0.2 0  1.8 0.2 0  1.84 0.2 0  1.88 0.2 0  1.92 0.2 0  1.96 0.2 0  2 0.2 0  2.04 0.2 0  2.08 0.2 0  2.12 0.2 0  2.16 0.2 0  2.2 0.2 0  2.24 0.2 0  2.28 0.2 0  2.32 0.2 0  2.36 0.2 0  2.4 0.2 0  0.0400582 0.239823 0  0 0.24 0  0.0801953 0.239475 0  0.120857 0.238513 0  0.164645 0.235355 0  0.279119 0.238502 0  0.235355 0.235355 0  0.319759 0.239451 0  0.359873 0.239774 0  0.399905 0.239898 0  0.439925 0.239951 0  0.479941 0.239976 0  0.519954 0.239988 0  0.559964 0.239994 0  0.5999719999999999 0.239997 0  0.639977 0.239999 0  0.679982 0.24 0  0.719985 0.24 0  0.759987 0.24 0  0.79999 0.24 0  0.839992 0.24 0  0.8799940000000001 0.24 0  0.919996 0.239999 0  0.959998 0.239999 0  1 0.239999 0  1.04 0.239999 0  1.08 0.239999 0  1.12 0.24 0  1.16 0.24 0  1.2 0.24 0  1.24 0.24 0  1.28 0.24 0  1.32 0.24 0  1.36 0.24 0  1.4 0.24 0  1.44 0.24 0  1.48 0.24 0  1.52 0.24 0  1.56 0.24 0  1.6 0.24 0  1.64 0.24 0  1.68 0.24 0  1.72 0.24 0  1.76 0.24 0  1.8 0.24 0  1.84 0.24 0  1.88 0.24 0  1.92 0.24 0  1.96 0.24 0  2 0.24 0  2.04 0.24 0  2.08 0.24 0  2.12 0.24 0  2.16 0.24 0  2.2 0.24 0  2.24 0.24 0  2.28 0.24 0  2.32 0.24 0  2.36 0.24 0  2.4 0.24 0  0.0401261 0.279816 0  0 0.28 0  0.0803376 0.279565 0  0.120778 0.27922 0  0.161485 0.279141 0  0.2 0.25 0  0.199996 0.282186 0  0.238503 0.279135 0  0.279195 0.279202 0  0.319616 0.279528 0  0.359799 0.279745 0  0.39988 0.279865 0  0.43992 0.279929 0  0.479944 0.279962 0  0.519958 0.27998 0  0.559968 0.27999 0  0.599976 0.279995 0  0.639981 0.279998 0  0.679984 0.279999 0  0.719987 0.28 0  0.759989 0.28 0  0.799991 0.28 0  0.839993 0.28 0  0.879995 0.28 0  0.919997 0.279999 0  0.959998 0.279999 0  1 0.279999 0  1.04 0.279999 0  1.08 0.28 0  1.12 0.28 0  1.16 0.28 0  1.2 0.28 0  1.24 0.28 0  1.28 0.28 0  1.32 0.28 0  1.36 0.28 0  1.4 0.28 0  1.44 0.28 0  1.48 0.28 0  1.52 0.28 0  1.56 0.28 0  1.6 0.28 0  1.64 0.28 0  1.68 0.28 0  1.72 0.28 0  1.76 0.28 0  1.8 0.28 0  1.84 0.28 0  1.88 0.28 0  1.92 0.28 0  1.96 0.28 0  2 0.28 0  2.04 0.28 0  2.08 0.28 0  2.12 0.28 0  2.16 0.28 0  2.2 0.28 0  2.24 0.28 0  2.28 0.28 0  2.32 0.28 0  2.36 0.28 0  2.4 0.28 0  0.0401086 0.319877 0  0 0.32 0  0.08025060000000001 0.319748 0  0.120433 0.319661 0  0.160522 0.319802 0  0.199995 0.320467 0  0.239464 0.319795 0  0.279543 0.319643 0  0.31971 0.319714 0  0.359828 0.319813 0  0.399895 0.319889 0  0.439933 0.319937 0  0.479955 0.319965 0  0.519968 0.319981 0  0.559976 0.31999 0  0.599982 0.319995 0  0.6399860000000001 0.319998 0  0.679989 0.319999 0  0.719991 0.32 0  0.759992 0.32 0  0.799994 0.32 0  0.839995 0.32 0  0.879996 0.32 0  0.919998 0.32 0  0.959999 0.32 0  1 0.32 0  1.04 0.32 0  1.08 0.32 0  1.12 0.32 0  1.16 0.32 0  1.2 0.32 0  1.24 0.32 0  1.28 0.32 0  1.32 0.32 0  1.36 0.32 0  1.4 0.32 0  1.44 0.32 0  1.48 0.32 0  1.52 0.32 0  1.56 0.32 0  1.6 0.32 0  1.64 0.32 0  1.68 0.32 0  1.72 0.32 0  1.76 0.32 0  1.8 0.32 0  1.84 0.32 0  1.88 0.32 0  1.92 0.32 0  1.96 0.32 0  2 0.32 0  2.04 0.32 0  2.08 0.32 0  2.12 0.32 0  2.16 0.32 0  2.2 0.32 0  2.24 0.32 0  2.28 0.32 0  2.32 0.32 0  2.36 0.32 0  2.4 0.32 0  0.0400579 0.359942 0  0 0.36 0  0.0801229 0.359891 0  0.120183 0.359873 0  0.160175 0.35994 0  0.199997 0.360086 0  0.239816 0.359936 0  0.279804 0.359862 0  0.319855 0.359871 0  0.359906 0.359906 0  0.399941 0.35994 0  0.439962 0.359964 0  0.479975 0.359979 0  0.5199820000000001 0.359989 0  0.559987 0.359994 0  0.59999 0.359997 0  0.639993 0.359998 0  0.679994 0.359999 0  0.7199950000000001 0.36 0  0.759996 0.36 0  0.799997 0.36 0  0.839997 0.36 0  0.8799979999999999 0.36 0  0
[...]
<PointData  Scalars="f_10391-2"> 
<DataArray  type="Float64"  Name="f_10391-2"  format="ascii">1.6397348104097203e-05  1.7117511687799817e-05  2.1226534048329718e-05  2.0655885861102461e-05  1.6599674573663203e-05  2.0939024640600938e-05  1.3690347253208270e-05  1.7319587911206973e-05  9.2650255188350532e-06  1.1458129978340936e-05  5.2560192322170518e-06  6.2884471051373835e-06  2.5709308645398484e-06  2.9680721142509800e-06  1.1195450535320681e-06  1.2514810045979580e-06  4.4247333419986954e-07  4.8154957610309790e-07  1.6001491406893257e-07  1.7009757628853152e-07  5.3039671461820840e-08  5.5051281621530576e-08  1.6095102298875770e-08  1.6248148037676606e-08  4.4620327644391517e-09  4.3497012465480107e-09  1.1276758413330388e-09  1.0502281832810112e-09  2.5928694683409623e-10  2.2723108674320526e-10  5.4135924517007838e-11  4.3668480601021101e-11  1.0240987495053109e-11  7.3504108158188054e-12  1.7498105899087048e-12  1.0558353631088770e-12  2.6868377202733955e-13  1.2179570739536266e-13  3.6741063594796630e-14  9.1484719499458366e-15  4.3959925454299941e-15  -2.1221017732537306e-16  4.4285764300276861e-16  -2.3906427677472972e-16  3.3831522436123224e-17  -5.4590288357048859e-17  1.1284719780346642e-18  -8.6501392606619894e-18  -1.9822042612662358e-19  -1.0584197201926743e-18  -5.0092742440540130e-20  -9.6255024748949594e-20  -6.6019615157079013e-21  -4.6576967322744274e-21  -5.5302215603800479e-22  3.9292182037176168e-22  -1.4664194776589070e-23  1.3526387926918995e-22  4.3678739840753197e-24  1.9601214027600575e-23  9.2613187390972284e-25  1.7535424872964521e-24  1.0176344431946814e-25  5.6923625709852605e-26  5.7232348696329128e-27  -1.1950894152632686e-26  -2.2765749143733011e-28  -2.6145612680698645e-27  -9.1981173448005440e-29  -2.7188679669051993e-28  -1.0480845081799866e-29  -1.2274725907495339e-29  -5.2406874302133632e-31  1.0272771760046190e-30  2.5441982705048953e-32  2.5266343609415695e-31  7.0218370772999508e-33  2.2255939237735382e-32  5.4666016993759904e-34  4.9918642506493700e-34  5.1640678461587563e-36  -1.1341424819894034e-34  -2.8183567947318809e-36  -1.4125822361415962e-35  -2.2479748546322207e-37  -4.7756895244461971e-37  1.7658494313878432e-39  4.6910930921925964e-38  1.3034648608747852e-39  5.6524457665189193e-39  5.3329798472474690e-41  7.7438112632085161e-41  -4.2623135952359417e-42  -2.2978017702593748e-41  -4.0250775670811770e-43  -1.1243744306040318e-42  7.0852940863564107e-45  7.5817281745992132e-44  1.7328504604858195e-45  6.4854114947677345e-45  -1.3709095361689843e-47  -2.5945650463547222e-46  -6.5670418990909829e-48  -2.9213610803158440e-47  1.2526062337855890e-49  1.2305375915979287e-48  2.3258589126427262e-50  1.1191411158781596e-49  -1.2279235363667279e-51  -7.8366990466392181e-51  -5.7094388925002016e-53  -3.1645983491908903e-52  9.0489993950350033e-54  4.9964011464943347e-53  -1.3184063315463259e-55  -2.1174899941661220e-55  -4.8126858085001127e-56  -2.6678815824245907e-55  3.0038264643631859e-57  1.2138889326391912e-56  3.6576335498545817e-58  1.9363433815385213e-57  3.2343794172561696e-05  3.1032367770314328e-05  3.3364281741758458e-05  2.8280334565718818e-05  1.8253444991319830e-05  9.4459852096993535e-06  4.1783535455326474e-06  1.6777123679879491e-06  6.2892354340964333e-07  2.1962401881147511e-07  7.0739039949914434e-08  2.0827857173754357e-08  5.5673984723225921e-09  1.3440719090718648e-09  2.9171722192804192e-10  5.6654067225414667e-11  9.7945863391337165e-12  1.4982653252587716e-12  2.0150218136284699e-13  2.3760261035710034e-14  2.4969917701617678e-15  2.5451133485902136e-16  3.0793173315449030e-17  4.9905764091717226e-18  9.1077459719659438e-19  1.5484114204293010e-19  2.2605300615073501e-20  2.7037475420394807e-21  2.4148278976586505e-22  1.0327573336572416e-23  -1.3676406751030546e-24  -4.0068052558479855e-25  -5.4858828472426724e-26  -4.4471176613436489e-27  -6.4708034257210247e-29  4.2845705858385788e-29  7.3473673132364256e-30  6.1592734193403070e-31  1.1597196004983064e-32  -4.1480025625450913e-33  -5.8383900404260211e-34  -3.0673658041982665e-35  1.1436788172299026e-36  3.0112781418880766e-37  1.7429836852386725e-38  -2.7987764452299993e-40  -7.9280349780770180e-41  -4.8598206663835672e-43  3.9179446196477029e-43  7.2767356601401493e-45  -2.2088394569746253e-45  -6.7428881677107117e-47  1.1580956117867565e-47  3.8214865592565686e-49  -6.1250606291795465e-50  -1.3528948512985843e-51  3.3256701385024183e-52  7.2653726066436454e-57  -1.6930735452870956e-54  4.7488792918279752e-56  1.3852581559152635e-56  4.6108673645219623e-05  4.4019088267704655e-05  4.8898659420998131e-05  4.3289473521380111e-05  2.8509847937667852e-05  1.3756837034750592e-05  5.5980970062207429e-06  2.1382109454808601e-06  7.9515807790008441e-07  2.7903707076457752e-07  9.0287271685158185e-08  2.6602103836309628e-08  7.0880599560292661e-09  1.6997599202275040e-09  3.6519053703276204e-10  6.9937613286877847e-11  1.1853006410426975e-11  1.7580007837339519e-12  2.2372582965541529e-13  2.3411685980099631e-14  1.7788686330324609e-15  3.8011851132801641e-17  -1.8391975226805211e-17  -4.7918236573501045e-18  -8.6169436008990071e-19  -1.3990515330022368e-19  -2.2116580273300826e-20  -3.4049987403687427e-21  -4.9234987313816827e-22  -6.3620708629544342e-23  -6.8599151782210697e-24  -5.2752612847337154e-25  -8.1900925449632345e-27  5.9519173064655856e-27  1.2413882041187753e-27  1.4472750287695555e-28  9.0572908549419606e-30  -2.6286320401958509e-31  -1.4092129938773742e-31  -1.7264340255502487e-32  -9.2999387066380023e-34  3.7525059429856301e-35  1.1523196974558171e-35  9.0022217687877939e-37  1.1581345965894516e-38  -3.2433974079577389e-39  -1.4851761324186156e-40  1.6176151077622496e-41  1.4913021755601917e-42  -5.9349368521829753e-44  -1.0889910166490851e-44  1.3441393474668846e-46  6.7950917196083357e-47  9.0895050574351409e-50  -3.8095298845140465e-49  -1.4995203536187631e-51  1.9965766272953547e-51  -1.1112567566421459e-53  -9.9324928665702306e-54  2.3562075568144076e-55  8.5960971060051019e-56  5.6614572812063960e-05  5.4348953907780038e-05  5.9981778906196310e-05  5.5899470728800267e-05  4.1532536220786796e-05  1.6422416830408670e-05  5.3348482759251523e-06  2.1710467690986863e-06  8.6764665198667913e-07  3.1752768115809866e-07  1.0462952139184833e-07  3.0928867528168479e-08  8.1881356044555526e-09  1.9365377656467083e-09  4.0737821045985098e-10  7.5675402719524011e-11  1.2263873016505447e-11  1.6955103417039741e-12  1.9042041715265388e-13  1.4989934983991393e-14  1.9246078068226246e-16  -2.0015648615843839e-16  -4.5621984389211418e-17  -6.3985185406888590e-18  -5.9564117381476913e-19  -1.4346397479386342e-20  8.9536757934500994e-21  2.6673228395579988e-21  5.2440976308685428e-22  8.5616064625982261e-23  1.2327005364507978e-23  1.5854599915261590e-24  1.7828987155477634e-25  1.6191784184752310e-26  8.6931025580059667e-28  -5.3238026547359445e-29  -2.2354422851274733e-29  -3.3792223967006832e-30  -2.9810320709060041e-31  -7.9280251312238122e-33  2.0557795654264190e-33  3.5696310754814061e-34  2.5811969139019360e-35  9.1009997506673530e-38  -1.5045937346600894e-37  -8.9194204100238943e-39  7.5592106220628748e-40  1.3262308229186159e-40  3.8471180370417695e-42  -5.8215097723005821e-43  -4.4335239412624511e-44  1.9755429054667817e-45  2.9589175075587469e-46  -6.1814360122541219e-48  -1.7155050262240929e-48  2.4969899762735648e-50  9.4070918096935966e-51  -1.7083194425730853e-52  -4.7761311024375375e-53  1.4655307640163950e-54  4.2438394485289606e-55  6.0933602994796321e-05  5.8568716204829769e-05  6.4113295617561071e-05  6.1326706326784145e-05  5.4751532596687433e-05  1.8446384076628092e-06  3.1614790608880370e-06  8.5151503527365531e-07  3.2689722910395445e-07  1.0890765309988971e-07  3.2029835019010126e-08  8.3587449871186112e-09  1.9335299952725210e-09  3.9416449170586191e-10  7.0016228507865517e-11  1.0606424994861718e-11  1.3094336787352036e-12  1.1599223696980681e-13  3.0990765010085209e-15  -1.3190021409784772e-15  -3.2884822762063935e-16  -4.4729582118298295e-17  -3.2202019437146648e-18  2.0160475891332270e-19  1.1546337192909568e-19  2.2949121354922425e-20  2.9694565785387024e-21  2.0957026487711454e-22  -1.5922355733792110e-23  -8.9609483538812381e-24  -1.9734214101753217e-24  -3.2038590900057266e-25  -4.2642923068479572e-26  -4.7733292079846155e-27  -4.3531314633527444e-28  -2.6663550839793514e-29  4.1106526694874139e-31  4.3174139968133691e-31  7.3426721930702207e-32  7.1068204458797116e-33  2.5406509112587304e-34  -3.9833498809357220e-35  -7.3086435853442600e-36  -3.9735729730195314e-37  3.4421929051535105e-38  7.9373583192647698e-39  5.4203351361133853e-40  -6.0305131781057381e-42  -3.4465971307505959e-42  -1.3938317888690726e-43  1.2845742836210846e-44  1.1170645152301716e-45  -4.2635830205762082e-47  -6.3380814222688792e-48  1.8939579445102179e-49  3.4050289171391272e-50  -1.2021498093786631e-51  -1.7497378592014316e-52  8.5985260281736950e-54  1.5723769987713445e-54  5.7447583266275509e-05  5.4775200483978956e-05  6.0166709045380250e-05  5.4326731001536444e-05  3.9915930192181480e-05  2.2097526533691112e-06  5.4289850876490752e-06  8.8578431836836566e-07  3.1956901077151499e-07  1.0270013695459388e-07  2.9365053043841802e-08  7.4493452249511590e-09  1.6659820659325608e-09  3.2472681344356595e-10  5.4034605423485088e-11  7.3607400224633707e-12  7.3478673646217558e-13  2.9642501178470047e-14  -7.2357383706367005e-15  -2.1074665665924575e-15  -3.0473091372578232e-16  -2.2090127922627013e-17  1.6683629418052602e-18  8.5765386499201439e-19  1.5723731591253801e-19  1.6529973548365238e-20  1.6794735502261309e-22  -3.5781064023164283e-22  -9.0525691451584114e-23  -1.3369940241513052e-23  -1.1007729722232371e-24  4.4062445467771566e-26  3.5984969720994785e-26  7.9190411035657276e-27  1.2094460372931434e-27  1.4430875481329915e-28  1.3556869219045723e-29  8.7761756482280895e-31  8.1512979973642679e-34  -1.1216427069810444e-32  -2.0928921269354917e-33  -2.1879061465942386e-34  -8.6523650417076379e-36  1.4524104623193269e-36  3.2172142407772202e-37  2.9412351423455870e-38  8.3178841715974924e-40  -1.1542994241976666e-40  -1.3507763419332353e-41  -1.8772206527094649e-43  6.0926978761134600e-44  3.1075330321372690e-45  -2.2972858052127220e-46  -1.9933390356254083e-47  9.6270576144752897e-49  1.0227062897484027e-49  -5.6824222649295347e-51  -4.8015120243641163e-52  4.0027181762028685e-53  3.8225610191173452e-54  4.6087616764175127e-05  4.3609381968960769e-05  4.8669571357590381e-05  4.2561090490604825e-05  2.8152193067162281e-05  1.6958443253873871e-05  1.3227456813817973e-05  5.6340843931222874e-06  2.1354882474331951e-06  7.8789510081961864e-07  2.6955860288920232e-07  8.3572573960245905e-08  2.3177279463338446e-08  5.6875316482215582e-09  1.2187477889539042e-09  2.2331823084874657e-10  3.3626959328264455e-11  3.7708744687882939e-12  1.9995048941384683e-13  -3.2982427460024528e-14  -1.1566571671678945e-14  -1.8163627844524892e-15  -1.3817665494057513e-16  1.1581630571841140e-17  5.9413683974305754e-18  1.0924720110219884e-18  1.1028175857009559e-19  -7.6823440238819159e-22  -2.8593885435868137e-21  -6.4551917932635063e-22  -7.9225445283071648e-23  -2.3107828069113567e-24  1.4548403388993702e-24  4.0157491526784956e-25  5.9394872591097993e-26  4.5491749789503180e-27  -2.5919332496997763e-28  -1.5395129763177086e-28  -2.9963958080842730e-29  -4.0240941325993008e-30  -4.1828041019601798e-31  -3.3990705433842626e-32  -1.7149331239898037e-33  1.0001381895174509e-34  4.6094583103770341e-35  7.7467493434085289e-36  7.9787173555214829e-37  4.1053696139784904e-38  -1.5488739332626438e-39  -4.4967296865516469e-40  -2.7658679258514510e-41  7.3918066684239778e-43  1.8785760996627464e-43  3.3435501793566554e-45  -9.0805178973233110e-46  -3.5882770105729450e-47  4.4556962678350489e-48  2.0968561440198166e-49  -2.5095170356021478e-50  -8.7154846214030169e-52  1.6261405408005397e-52  2.9023512535526315e-54  3.1283671425368698e-05  2.9959282997907557e-05  3.2599503077053361e-05  2.8310791234806232e-05  1.8546465008252608e-05  9.2894164935453460e-06  4.1003357876770773e-06  1.6053917827051809e-06  5.8766503901965924e-07  1.9745989482590907e-07  5.9893797118312435e-08  1.6161519487934764e-08  3.8202880619432271e-09  7.7447287337383302e-10  1.2971810885543350e-10  1.6466189641540238e-11  1.1263294387997911e-12  -1.1437634862152699e-13  -5.3077763182427762e-14  -9.2085961677968169e-15  -7.3136283374046139e-16  7.6227142130641894e-17  3.8141284489308995e-17  7.1630824136774503e-18  7.2007189601584643e-19  -1.3937013691410943e-20  -2.1959180575711795e-20  -4.8487973105751719e-21  -5.7658673077060779e-22  -1.0192550474399888e-23  1.2323870289485844e-23  3.0505418266654375e-24  3.7281420756386696e-25  6.4740844246371092e-27  -7.7707352331247863e-27  -1.8596057942526451e-27  -2.2461232633755576e-28  -7.6647332444608948e-30  2.8893954901430404e-30  7.2239067478619045e-31  9.5066763601709358e-32  8.1655106555677246e-33  4.8699241076091362e-34  3.3132638544973978e-35  4.9514761145778517e-36  6.6537263955521353e-37  4.3697533052570372e-38  -9.5128944214632368e-40  -3.7439806635113887e-40  -1.3249132048630843e-41  2.0377694486181996e-42  1.3752236684192737e-43  -1.5832238308214497e-44  -1.7707400090434165e-45  7.3004370695791508e-47  1.4784342904264360e-47  -2.9616962643922886e-49  -1.0467379536112935e-49  1.6758479971891252e-51  6.8036387600498224e-52  -3.5724499561781824e-53  2.0352463224027300e-05  2.0115453496855800e-05  2.0250377373893156e-05  1.7356573015369466e-05  1.1683252889959121e-05  6.2263609756629166e-06  2.8558871293440091e-06  1.1575676866163942e-06  4.2578559518864643e-07  1.4147289476849036e-07  4.1980419199152713e-08  1.0957734959803745e-08  2.4635074745930970e-09  4.6071617711845448e-10  6.6498754046568712e-11  5.7328914263768052e-12  -2.9362803850762727e-13  -2.2305876823511562e-13  -4.4211918297892568e-14  -3.8991508379732965e-15  4.1059246203516010e-16  2.2389995394066695e-16  4.3998219538823798e-17  4.4282063561484390e-18  -1.7160461741094737e-19  -1.7052566055543661e-19  -3.7749874726077087e-20  -4.6007908268461606e-21  -9.3637379188224170e-23  9.9770377527535523e-23  2.5443445102570630e-23  3.1372188748772754e-24  3.3431654537851697e-26  -7.3559144203613757e-26  -1.6460629335794968e-26  -1.5610717916963006e-27  9.6487689728063730e-29  5.9926759738171014e-29  1.0199769168084962e-29  7.2144695778279503e-31  -7.4574105427488943e-32  -2.9134320231235803e-32  -4.2195095005193155e-33  -3.0527439174571640e-34  5.4180456102082164e-36  4.3039369166865272e-36  5.4961444337840381e-37  3.4903589429867628e-38  2.8363040131352252e-40  -1.7397605668322602e-40  -1.9913669308670803e-41  -1.3047476361120557e-42  -3.4557184647937350e-44  5.7313560455020894e-45  8.4088246818374605e-46  1.6641330403705939e-47  -5.4415056885078663e-48  -3.2364120273431655e-49  2.9591315826657599e-50  2.6590659224923601e-51  -3.3128985452118044e-52  1.6694005429545766e-05  1.7190714007787150e-05  1.6051836785215466e-05  1.3560303705781863e-05  9.2454554683646761e-06  5.0625658338945867e-06  2.3527220861066311e-06  9.5881842384444574e-07  3.4928796083016475e-07  1.1342191509612224e-07  3.2415250820688412e-08  7.9786053356157285e-09  1.6288088321163892e-09  2.5389083563031580e-10  2.2305827694452013e-11  -2.0523672901434577e-12  -1.3076142771525768e-12  -2.8053449540157059e-13  -2.9752740406418808e-14  1.6273443487246542e-15  1.3955791347550676e-15  3.0421462863251881e-16  3.3225925028534954e-17  -1.0583189408862493e-18  -1.3021120034301085e-18  -3.0287663022808835e-19  -3.8789179488548931e-20  -1.0115126536484186e-21  8.5099943900769223e-22  2.3532887560806236e-22  3.2548480150276887e-23  1.1552790896727882e-24  -6.1343056712735825e-25  -1.6538041672633090e-25  -1.9065465046189706e-26  4.2326943004940832e-28  6.0710681642155342e-28  1.1686665029187386e-28  8.5789970290214996e-30  -1.1975053024002725e-30  -4.6114058986561536e-31  -6.7558024277057450e-32  -3.8048573937974368e-33  5.7079856627803308e-34  1.7566374651632351e-34  2.3272766376371436e-35  1.7005577861798441e-36  1.9838577231939680e-38  -1.1435458353557144e-38  -1.5075330502541961e-39  -9.5581238799118945e-41  -1.3807162996749350e-42  4.1488943861255902e-43  5.3561242055992018e-44  2.6898021400150891e-45  -1.3842074813074339e-46  -2.8544746167236066e-47  -5.2126144780931374e-49  1.7833075737043535e-49  8.3637129618826718e-51  -1.8185246542277716e-51  </DataArray> 
</PointData> 
</Piece>
</UnstructuredGrid>
</VTKFile>