<?xml version="1.0"?>
<VTKFile type="UnstructuredGrid"  version="0.1"  >
<UnstructuredGrid>
<Piece  NumberOfPoints="670" NumberOfCells="1192">
<Points>
<DataArray  type="Float64"  NumberOfComponents="3"  format="ascii">0 0 0  0.04 -1.31357e-10 0  0.0400579 0.0400582 0  0 0.04 0  0.08 -2.62713e-10 0  0.080123 0.0401093 0  0.12 -3.9407e-10 0  0.120183 0.040127 0  0.16 -5.25427e-10 0  0.160176 0.0400597 0  0.2 -6.56784e-10 0  0.199997 0.0399142 0  0.24 -7.8814e-10 0  0.239816 0.0400642 0  0.28 -9.19497e-10 0  0.279804 0.0401377 0  0.32 -1.05085e-09 0  0.319855 0.0401297 0  0.36 -1.18221e-09 0  0.359906 0.0400945 0  0.4 -1.31357e-09 0  0.399941 0.0400609 0  0.44 -1.44492e-09 0  0.439962 0.0400367 0  0.48 -1.57628e-09 0  0.479975 0.0400214 0  0.52 -1.70764e-09 0  0.519983 0.0400122 0  0.5600000000000001 -1.83899e-09 0  0.559987 0.0400069 0  0.6 -1.97035e-09 0  0.59999 0.040004 0  0.64 -2.10171e-09 0  0.639993 0.0400023 0  0.68 -2.23306e-09 0  0.679994 0.0400013 0  0.72 -2.36442e-09 0  0.7199950000000001 0.0400008 0  0.76 -2.49578e-09 0  0.759996 0.0400005 0  0.8 -2.62713e-09 0  0.799997 0.0400002 0  0.84 -2.75849e-09 0  0.839997 0.0400001 0  0.88 -2.88985e-09 0  0.8799979999999999 0.04 0  0.92 -3.0212e-09 0  0.919999 0.0399999 0  0.96 -3.15256e-09 0  0.959999 0.0399998 0  1 -3.28392e-09 0  1 0.0399998 0  1.04 -3.41527e-09 0  1.04 0.0399998 0  1.08 -3.54663e-09 0  1.08 0.0399998 0  1.12 -3.67799e-09 0  1.12 0.0399998 0  1.16 -3.80934e-09 0  1.16 0.0399999 0  1.2 -3.9407e-09 0  1.2 0.04 0  1.24 -4.07206e-09 0  1.24 0.04 0  1.28 -4.20341e-09 0  1.28 0.0400001 0  1.32 -4.33477e-09 0  1.32 0.0400001 0  1.36 -4.46613e-09 0  1.36 0.04 0  1.4 -4.59748e-09 0  1.4 0.04 0  1.44 -4.72884e-09 0  1.44 0.04 0  1.48 -4.8602e-09 0  1.48 0.04 0  1.52 -4.99156e-09 0  1.52 0.04 0  1.56 -5.12291e-09 0  1.56 0.04 0  1.6 -5.25427e-09 0  1.6 0.0400001 0  1.64 -5.38563e-09 0  1.64 0.0400001 0  1.68 -5.51698e-09 0  1.68 0.04 0  1.72 -5.64834e-09 0  1.72 0.04 0  1.76 -5.7797e-09 0  1.76 0.04 0  1.8 -5.91105e-09 0  1.8 0.04 0  1.84 -6.04241e-09 0  1.84 0.04 0  1.88 -6.17377e-09 0  1.88 0.0400001 0  1.92 -6.30512e-09 0  1.92 0.0400001 0  1.96 -6.43648e-09 0  1.96 0.0400001 0  2 -6.56784e-09 0  2 0.0400001 0  2.04 -6.69919e-09 0  2.04 0.0400001 0  2.08 -6.83055e-09 0  2.08 0.04 0  2.12 -6.96191e-09 0  2.12 0.04 0  2.16 -7.09326e-09 0  2.16 0.0400001 0  2.2 -7.22462e-09 0  2.2 0.04 0  2.24 -7.35598e-09 0  2.24 0.04 0  2.28 -7.48733e-09 0  2.28 0.0399999 0  2.32 -7.618690000000001e-09 0  2.32 0.04 0  2.36 -7.750049999999999e-09 0  2.36 0.04 0  2.4 -7.8814e-09 0  2.4 0.04 0  0.0401088 0.0801235 0  0 0.08 0  0.0802509 0.0802518 0  0.120434 0.0803392 0  0.160522 0.0801977 0  0.199995 0.0795328 0  0.239464 0.0802049 0  0.279544 0.08035689999999999 0  0.319711 0.0802867 0  0.359828 0.08018740000000001 0  0.399896 0.0801123 0  0.439933 0.0800646 0  0.479955 0.0800365 0  0.519968 0.08002049999999999 0  0.559976 0.0800116 0  0.599982 0.0800066 0  0.6399860000000001 0.0800039 0  0.679989 0.0800023 0  0.719991 0.0800014 0  0.759992 0.0800008 0  0.799994 0.0800004 0  0.839995 0.08000019999999999 0  0.879996 0.0799999 0  0.919997 0.07999970000000001 0  0.959999 0.0799996 0  1 0.0799995 0  1.04 0.0799995 0  1.08 0.0799996 0  1.12 0.07999970000000001 0  1.16 0.0799998 0  1.2 0.08 0  1.24 0.0800001 0  1.28 0.0800001 0  1.32 0.0800001 0  1.36 0.08 0  1.4 0.0799999 0  1.44 0.0799999 0  1.48 0.0799999 0  1.52 0.0799999 0  1.56 0.08 0  1.6 0.0800001 0  1.64 0.0800001 0  1.68 0.08 0  1.72 0.0799999 0  1.76 0.0799999 0  1.8 0.0799999 0  1.84 0.0799999 0  1.88 0.08 0  1.92 0.0800001 0  1.96 0.0800001 0  2 0.0800001 0  2.04 0.08 0  2.08 0.0799999 0  2.12 0.0799999 0  2.16 0.08 0  2.2 0.08 0  2.24 0.0799999 0  2.28 0.0799998 0  2.32 0.0799999 0  2.36 0.0799999 0  2.4 0.08 0  0.0401262 0.120184 0  0 0.12 0  0.0803378 0.120435 0  0.120779 0.12078 0  0.161485 0.120859 0  0.199996 0.117814 0  0.238503 0.120866 0  0.279195 0.120798 0  0.319616 0.120473 0  0.359799 0.120256 0  0.39988 0.120136 0  0.439921 0.120073 0  0.479944 0.120039 0  0.519958 0.120022 0  0.5599690000000001 0.120012 0  0.599976 0.120007 0  0.639981 0.120004 0  0.679985 0.120002 0  0.719987 0.120002 0  0.7599900000000001 0.120001 0  0.799991 0.12 0  0.839993 0.12 0  0.879995 0.12 0  0.919996 0.12 0  0.959998 0.119999 0  1 0.119999 0  1.04 0.119999 0  1.08 0.119999 0  1.12 0.12 0  1.16 0.12 0  1.2 0.12 0  1.24 0.12 0  1.28 0.12 0  1.32 0.12 0  1.36 0.12 0  1.4 0.12 0  1.44 0.12 0  1.48 0.12 0  1.52 0.12 0  1.56 0.12 0  1.6 0.12 0  1.64 0.12 0  1.68 0.12 0  1.72 0.12 0  1.76 0.12 0  1.8 0.12 0  1.84 0.12 0  1.88 0.12 0  1.92 0.12 0  1.96 0.12 0  2 0.12 0  2.04 0.12 0  2.08 0.12 0  2.12 0.12 0  2.16 0.12 0  2.2 0.12 0  2.24 0.12 0  2.28 0.12 0  2.32 0.12 0  2.36 0.12 0  2.4 0.12 0  0.0400582 0.160177 0  0 0.16 0  0.0801954 0.160525 0  0.120857 0.161488 0  0.164645 0.164645 0  0.2 0.15 0  0.235355 0.164645 0  0.279119 0.161498 0  0.319759 0.16055 0  0.359874 0.160228 0  0.399906 0.160104 0  0.439925 0.160051 0  0.479941 0.160027 0  0.519954 0.160014 0  0.559964 0.160008 0  0.5999719999999999 0.160005 0  0.639978 0.160003 0  0.679982 0.160002 0  0.719985 0.160001 0  0.759988 0.160001 0  0.79999 0.16 0  0.839992 0.16 0  0.8799940000000001 0.16 0  0.919996 0.159999 0  0.959998 0.159999 0  1 0.159999 0  1.04 0.159999 0  1.08 0.159999 0  1.12 0.16 0  1.16 0.16 0  1.2 0.16 0  1.24 0.16 0  1.28 0.16 0  1.32 0.16 0  1.36 0.16 0  1.4 0.16 0  1.44 0.16 0  1.48 0.16 0  1.52 0.16 0  1.56 0.16 0  1.6 0.16 0  1.64 0.16 0  1.68 0.16 0  1.72 0.16 0  1.76 0.16 0  1.8 0.16 0  1.84 0.16 0  1.88 0.16 0  1.92 0.16 0  1.96 0.16 0  2 0.16 0  2.04 0.16 0  2.08 0.16 0  2.12 0.16 0  2.16 0.16 0  2.2 0.16 0  2.24 0.16 0  2.28 0.16 0  2.32 0.16 0  2.36 0.16 0  2.4 0.16 0  0.0399111 0.2 0  0 0.2 0  0.0795281 0.2 0  0.117811 0.2 0  0.15 0.2 0  0.282167 0.2 0  0.25 0.2 0  0.320429 0.2 0  0.36003 0.200001 0  0.399944 0.200001 0  0.439934 0.200001 0  0.479942 0.200001 0  0.519953 0.200001 0  0.559963 0.200001 0  0.59997 0.200001 0  0.639976 0.200001 0  0.6799809999999999 0.200001 0  0.719984 0.200001 0  0.759987 0.200001 0  0.799989 0.2 0  0.839991 0.2 0  0.879993 0.2 0  0.919996 0.199999 0  0.959998 0.199999 0  1 0.199999 0  1.04 0.199999 0  1.08 0.199999 0  1.12 0.2 0  1.16 0.2 0  1.2 0.2 0  1.24 0.2 0  1.28 0.2 0  1.32 0.2 0  1.36 0.2 0  1.4 0.2 0  1.44 0.2 0  1.48 0.2 0  1.52 0.2 0  1.56 0.2 0  1.6 0.2 0  1.64 0.2 0  1.68 0.2 0  1.72 0.2 0  1.76 0.2 0  1.8 0.2 0  1.84 0.2 0  1.88 0.2 0  1.92 0.2 0  1.96 0.2 0  2 0.2 0  2.04 0.2 0  2.08 0.2 0  2.12 0.2 0  2.16 0.2 0  2.2 0.2 0  2.24 0.2 0  2.28 0.2 0  2.32 0.2 0  2.36 0.2 0  2.4 0.2 0  0.0400582 0.239823 0  0 0.24 0  0.0801953 0.239475 0  0.120857 0.238513 0  0.164645 0.235355 0  0.279119 0.238502 0  0.235355 0.235355 0  0.319759 0.239451 0  0.359873 0.239774 0  0.399905 0.239898 0  0.439925 0.239951 0  0.479941 0.239976 0  0.519954 0.239988 0  0.559964 0.239994 0  0.5999719999999999 0.239997 0  0.639977 0.239999 0  0.679982 0.24 0  0.719985 0.24 0  0.759987 0.24 0  0.79999 0.24 0  0.839992 0.24 0  0.8799940000000001 0.24 0  0.919996 0.239999 0  0.959998 0.239999 0  1 0.239999 0  1.04 0.239999 0  1.08 0.239999 0  1.12 0.24 0  1.16 0.24 0  1.2 0.24 0  1.24 0.24 0  1.28 0.24 0  1.32 0.24 0  1.36 0.24 0  1.4 0.24 0  1.44 0.24 0  1.48 0.24 0  1.52 0.24 0  1.56 0.24 0  1.6 0.24 0  1.64 0.24 0  1.68 0.24 0  1.72 0.24 0  1.76 0.24 0  1.8 0.24 0  1.84 0.24 0  1.88 0.24 0  1.92 0.24 0  1.96 0.24 0  2 0.24 0  2.04 0.24 0  2.08 0.24 0  2.12 0.24 0  2.16 0.24 0  2.2 0.24 0  2.24 0.24 0  2.28 0.24 0  2.32 0.24 0  2.36 0.24 0  2.4 0.24 0  0.0401261 0.279816 0  0 0.28 0  0.0803376 0.279565 0  0.120778 0.27922 0  0.161485 0.279141 0  0.2 0.25 0  0.199996 0.282186 0  0.238503 0.279135 0  0.279195 0.279202 0  0.319616 0.279528 0  0.359799 0.279745 0  0.39988 0.279865 0  0.43992 0.279929 0  0.479944 0.279962 0  0.519958 0.27998 0  0.559968 0.27999 0  0.599976 0.279995 0  0.639981 0.279998 0  0.679984 0.279999 0  0.719987 0.28 0  0.759989 0.28 0  0.799991 0.28 0  0.839993 0.28 0  0.879995 0.28 0  0.919997 0.279999 0  0.959998 0.279999 0  1 0.279999 0  1.04 0.279999 0  1.08 0.28 0  1.12 0.28 0  1.16 0.28 0  1.2 0.28 0  1.24 0.28 0  1.28 0.28 0  1.32 0.28 0  1.36 0.28 0  1.4 0.28 0  1.44 0.28 0  1.48 0.28 0  1.52 0.28 0  1.56 0.28 0  1.6 0.28 0  1.64 0.28 0  1.68 0.28 0  1.72 0.28 0  1.76 0.28 0  1.8 0.28 0  1.84 0.28 0  1.88 0.28 0  1.92 0.28 0  1.96 0.28 0  2 0.28 0  2.04 0.28 0  2.08 0.28 0  2.12 0.28 0  2.16 0.28 0  2.2 0.28 0  2.24 0.28 0  2.28 0.28 0  2.32 0.28 0  2.36 0.28 0  2.4 0.28 0  0.0401086 0.319877 0  0 0.32 0  0.08025060000000001 0.319748 0  0.120433 0.319661 0  0.160522 0.319802 0  0.199995 0.320467 0  0.239464 0.319795 0  0.279543 0.319643 0  0.31971 0.319714 0  0.359828 0.319813 0  0.399895 0.319889 0  0.439933 0.319937 0  0.479955 0.319965 0  0.519968 0.319981 0  0.559976 0.31999 0  0.599982 0.319995 0  0.6399860000000001 0.319998 0  0.679989 0.319999 0  0.719991 0.32 0  0.759992 0.32 0  0.799994 0.32 0  0.839995 0.32 0  0.879996 0.32 0  0.919998 0.32 0  0.959999 0.32 0  1 0.32 0  1.04 0.32 0  1.08 0.32 0  1.12 0.32 0  1.16 0.32 0  1.2 0.32 0  1.24 0.32 0  1.28 0.32 0  1.32 0.32 0  1.36 0.32 0  1.4 0.32 0  1.44 0.32 0  1.48 0.32 0  1.52 0.32 0  1.56 0.32 0  1.6 0.32 0  1.64 0.32 0  1.68 0.32 0  1.72 0.32 0  1.76 0.32 0  1.8 0.32 0  1.84 0.32 0  1.88 0.32 0  1.92 0.32 0  1.96 0.32 0  2 0.32 0  2.04 0.32 0  2.08 0.32 0  2.12 0.32 0  2.16 0.32 0  2.2 0.32 0  2.24 0.32 0  2.28 0.32 0  2.32 0.32 0  2.36 0.32 0  2.4 0.32 0  0.0400579 0.359942 0  0 0.36 0  0.0801229 0.359891 0  0.120183 0.359873 0  0.160175 0.35994 0  0.199997 0.360086 0  0.239816 0.359936 0  0.279804 0.359862 0  0.319855 0.359871 0  0.359906 0.359906 0  0.399941 0.35994 0  0.439962 0.359964 0  0.479975 0.359979 0  0.5199820000000001 0.359989 0  0.559987 0.359994 0  0.59999 0.359997 0  0.639993 0.359998 0  0.679994 0.359999 0  0.7199950000000001 0.36 0  0.759996 0.36 0  0.799997 0.36 0  0.839997 0.36 0  0.8799979999999999 0.36 0  0
[...]
<PointData  Scalars="f_10391-2"> 
<DataArray  type="Float64"  Name="f_10391-2"  format="ascii">2.0772057490930599e-06  2.4399572070292072e-06  3.7866304368528573e-06  3.4067882464955351e-06  2.6489320427340859e-06  4.1496786751382062e-06  2.2824220882838946e-06  3.5534996370434352e-06  1.4727241252218198e-06  2.2090815262512307e-06  7.3591086345072723e-07  1.0512700127310458e-06  2.9484064193576887e-07  3.9872350359920293e-07  9.8938329605248409e-08  1.2661131874857229e-07  2.8568505169934228e-08  3.4630867225197164e-08  7.1880427649692708e-09  8.2237434157605591e-09  1.5822863445924798e-09  1.6872720596679908e-09  3.0461467046682307e-10  2.9507713098237630e-10  5.1139596926183976e-11  4.2898522881858306e-11  7.4450940840084121e-12  4.9123542058339378e-12  9.2978245903091347e-13  3.7389156873769446e-13  9.7374540465427122e-14  1.4563649164126387e-16  8.1041377526205040e-15  -5.8954419001810655e-15  4.5220488252326621e-16  -1.2104279770607711e-15  1.0648057744004371e-18  -1.5727759736516523e-16  -3.4152600449709030e-18  -1.4384503586774539e-17  -4.6229951569983307e-19  -7.9672822777231186e-19  -3.3462935795416288e-20  6.2959891249353022e-21  -8.5972905278200112e-22  6.9024751428616049e-21  1.0276849762359535e-22  7.8018938440917878e-22  1.3509512621460535e-23  4.1172296923974921e-23  5.8041718670763246e-25  -2.9702169180827098e-25  -1.4317536144526676e-26  -2.0747593958794661e-25  -2.3670380711325391e-27  -1.1317775802073594e-26  -4.9072394370412657e-31  2.3160466811178622e-28  9.3248573021536537e-30  4.3911105399300820e-29  1.0733165407844672e-31  -3.4887072211758104e-31  -3.5056478616928863e-32  -1.8687418375558318e-31  -7.2603504796982380e-35  8.9557518240041616e-34  1.5208864233586321e-34  7.5545803075287189e-34  -2.7447200740711096e-36  -1.4959714626427933e-35  -5.8572962450236825e-37  -2.9649677433046576e-36  3.1875811103633673e-38  1.4949870286671723e-37  1.4083977494428402e-39  8.6091251519191870e-39  -2.1330802476837422e-40  -1.0285340200311104e-39  4.0143044646625772e-42  4.0635918115571780e-42  8.5788793855341365e-43  4.8425341492149292e-42  -7.1087222089914310e-44  -2.5944741983143892e-43  -4.5921863401979234e-46  -9.2521527637069214e-45  3.8641235213014525e-46  1.7245684668832603e-45  -1.9659466633183563e-47  -6.3049445577912502e-47  -5.4264093565455070e-49  -3.8503641605869280e-48  1.1500282803460503e-49  5.5114993203413182e-49  -5.5966926127369234e-51  -2.1827346441118921e-50  -4.0516529133153078e-53  -7.7981058757320032e-52  2.4863981126285350e-53  1.5438821870517245e-52  -1.9237908680482426e-54  -9.6511839148838675e-54  7.6319686996207087e-56  1.9735981238376972e-55  3.3069123083833956e-58  2.5148389538951213e-56  -3.9424872496184832e-58  -3.5526744846195748e-57  4.6558999238610203e-59  2.5587272513480508e-58  -3.4830223819361082e-60  -9.6615076794385848e-60  1.4214597498717540e-61  -3.3465031991749733e-61  4.6717121794723330e-63  9.7482798120850477e-62  -1.4967399648197867e-63  -9.6501893337804788e-63  1.5983704262516849e-64  5.5239474352683521e-64  -2.3191707902819859e-65  -2.2669446607027342e-65  7.8667383153976504e-06  7.0575201445997146e-06  8.9884546405639937e-06  7.8694069140735630e-06  4.7543867626386906e-06  2.1222785920389667e-06  7.5094437700901161e-07  2.2606572752793475e-07  6.0298518339646290e-08  1.4283492703932060e-08  2.9733309726753917e-09  5.3744942460113481e-10  8.3418748848688597e-11  1.1002495910679250e-11  1.2213781006422586e-12  1.1404393697807623e-13  9.4249477987295031e-15  8.5494241075696716e-16  1.1179569379921222e-16  1.7733147018384163e-17  2.5171422481141899e-18  2.7901734104523094e-19  2.1543272778026523e-20  7.3551468951009819e-22  -7.0663797742894707e-23  -1.3185440301812762e-23  -9.0605277575288025e-25  -1.0383882718416801e-26  3.0698932871682615e-27  1.7536467813475284e-28  -6.4553576231661494e-30  -8.1581976028828409e-31  1.8417404570115217e-32  3.4598959095403376e-33  -9.9772042106473011e-35  -1.3963215132598898e-35  7.0118689679761419e-37  4.4340634691254826e-38  -4.6439606160432677e-39  -5.1023485426057589e-41  2.2298218887305178e-41  -7.0268657905790293e-43  -5.3571848562788695e-44  5.8808232677295267e-45  -1.9055434040239215e-46  -1.3049764528064646e-47  2.2099210853899282e-48  -1.1404302909959064e-49  -3.1679580194282518e-51  8.8734226787733738e-52  -5.7793023860208359e-53  4.0889067386502498e-55  2.6038526678996192e-55  -2.6175671758976452e-56  1.1700366462722014e-57  1.8318606970721675e-59  -7.8526046210692851e-60  7.2631419620110156e-61  -3.7098085371193718e-62  7.1360009695179408e-65  3.3915489451627920e-64  1.3678546388628688e-05  1.2312749471137901e-05  1.6025347015066289e-05  1.4737809604071366e-05  9.1698005525735118e-06  3.7911018587851010e-06  1.2288826682108310e-06  3.4611712145335534e-07  9.0719495600749610e-08  2.1480906078867868e-08  4.4602694671701046e-09  7.9462029806191509e-10  1.1897512610618626e-10  1.4502805917797676e-11  1.3345608279649776e-12  6.7902713970394981e-14  -4.6007478261115437e-15  -1.7821591157023228e-15  -2.8940355768379698e-16  -3.5630578991205956e-17  -3.8930819829504880e-18  -4.2185127731038833e-19  -4.6983568905277337e-20  -4.9286045032251943e-21  -4.1222098063107786e-22  -1.9763072071272799e-23  6.0449271631390734e-25  2.0271082185828335e-25  1.5742144966818456e-26  2.2059303076988877e-28  -5.0619354425193419e-29  -2.4507656910938254e-30  1.6613366991059617e-31  1.3225620795949907e-32  -6.2209652439847571e-34  -5.3794099508617599e-35  3.4081127578460297e-36  1.9295093278067045e-37  -1.7918313394710327e-38  -2.9325126339315753e-40  7.6202381115900092e-41  -2.5660474501261036e-42  -1.4819037288069380e-43  2.3334341174909940e-44  -1.0730797965684494e-45  -5.0087405128316785e-47  1.0639944580855710e-47  -5.8321169086185597e-49  -1.7424861975372721e-50  5.0702081548760939e-51  -3.1054640309767544e-52  -3.5080371237875651e-54  1.9721468337626928e-54  -1.4958819365991729e-55  3.0213374168005932e-57  4.8782532430899451e-58  -6.0854963803170882e-59  3.4137600739456526e-60  -3.5835667444224028e-62  -1.4162528850358776e-62  3.1190839856742581e-63  1.8577339555166762e-05  1.6933782642799007e-05  2.1601903277489049e-05  2.1075812441983949e-05  1.5216494762618238e-05  4.9666120628531154e-06  1.2273061033036697e-06  3.6014792975592509e-07  1.0229165170970251e-07  2.5416306960503988e-08  5.3424033689589998e-09  9.3171486166881044e-10  1.3109530123132027e-10  1.3928580256401044e-11  8.7453131780144322e-13  -3.1675411353175416e-14  -1.7891787279653270e-14  -2.6908654141565179e-15  -2.0620627566258824e-16  5.7433844475671486e-18  4.7185372976290317e-18  8.9426333412040061e-19  1.1681601098926053e-19  1.2296164278913907e-20  1.1362414033532589e-21  9.7015866929435563e-23  7.2701111685549347e-24  3.5964996046289352e-25  -5.5162185671847951e-27  -2.9500518237935813e-27  -2.3066258759877236e-28  -1.7338058451148808e-30  8.3633463307477820e-31  2.5264043680095927e-32  -3.5026764617909594e-33  -1.5128944572538217e-34  1.3945604633968052e-35  4.3686595683838486e-37  -6.0020443324533070e-38  8.1750301488386664e-40  2.2766462716852559e-40  -2.0167123320026484e-41  -1.7299749997769414e-43  1.3803025064212797e-43  -6.9156780338186782e-45  -3.6657114724665492e-46  6.1827515766414051e-47  -2.2343141435051394e-48  -1.7757529083723395e-49  2.5972461542528665e-50  -1.0977738733985946e-51  -5.5517441390687567e-53  1.0929236553086919e-53  -6.2646420444371734e-55  -4.8214187516331783e-57  3.7132060464666729e-57  -3.1231296394749381e-58  1.0285039489334920e-59  5.9132261635073421e-61  -1.1270754329555855e-61  1.6075363790766976e-62  2.0698477372889195e-05  1.8940143851946524e-05  2.3743540475691545e-05  2.3739524638549985e-05  2.1121642603371170e-05  2.8231153956636579e-07  6.2120858392091231e-07  9.7275715144265502e-08  2.5705127126595845e-08  5.3975025581616538e-09  8.9975496635569930e-10  1.1413408682623541e-10  9.4079647583504248e-12  5.8431869622495992e-14  -1.3176988049701375e-13  -2.3719097297251679e-14  -1.9306828857217272e-15  7.1054232773281613e-17  4.7604191343815656e-17  7.4960255217346986e-18  5.3049005922057803e-19  -3.7235309210311748e-20  -1.7292696732763113e-20  -2.9225725661343639e-21  -3.3565620939614458e-22  -2.9224727247588441e-23  -2.0213793740824205e-24  -1.1137602010692524e-25  -3.6748158497450344e-27  1.8758890526572667e-28  4.1067325327335155e-29  2.3761675683621172e-30  -5.0347905474016355e-32  -1.1020453592415966e-32  9.8870751862751188e-35  4.4975099552227715e-35  -1.8548230588522037e-36  -2.1792973736521515e-37  2.0320332709548656e-38  9.5362452817108094e-40  -1.5204803434633992e-40  -9.2288023335733859e-43  8.4824053217200067e-43  -3.2161825843403053e-44  -2.8249884905447583e-45  3.2073449002413757e-46  -4.2972781544062161e-48  -1.3316606496273012e-48  1.1162575307312500e-49  -1.6393586856350343e-51  -4.3221085880139244e-52  4.5240805105348678e-53  -1.7103539311829273e-54  -9.3882298107785937e-56  1.8385114244513470e-56  -1.2099888579933789e-57  1.5295777355970475e-59  4.9456151042144964e-60  -5.7890101375664514e-61  6.3104986638895224e-62  1.9020711286525587e-05  1.7211376517171081e-05  2.1719211921968638e-05  2.0324796050115831e-05  1.4409172713025704e-05  3.7141316244306896e-07  1.2500002981991007e-06  1.0514059115024780e-07  2.4892979067537510e-08  4.7554033416969155e-09  7.0110061950303429e-10  7.0289131876185629e-11  2.0096330146133252e-12  -8.6072781055327845e-13  -1.9804499711257808e-13  -2.0965217661674383e-14  -2.5148217482330290e-16  3.2123071848587395e-16  5.7762970830973735e-17  3.5029219570096885e-18  -5.7488745094631439e-19  -1.8034768162611323e-19  -2.2267561658588304e-20  -6.6549122420585163e-22  2.9556759420304212e-22  7.0000557527244918e-23  9.0872357871539942e-24  8.0648102374884124e-25  4.9539658935476674e-26  1.7845863042805934e-27  -1.9252310726056036e-29  -8.7690691153194151e-30  -6.0478557403711265e-31  7.9794938156216271e-33  4.0022841934855482e-33  7.4023416949609796e-35  -2.6435550851035222e-35  -1.0388201747908479e-36  1.4570174569159535e-37  5.7939867710718306e-39  -7.9456213642794598e-40  -1.1741941153957687e-41  4.2748724764502057e-42  -9.8521900101398385e-44  -1.6779062606182389e-44  1.2804732331766394e-45  1.0891018499781148e-47  -6.7972169949604794e-48  3.8925149902020095e-49  5.7043396299099444e-51  -2.2776590912900294e-51  1.5327356505816586e-52  -2.0840833873198505e-54  -5.8855633482719493e-55  6.9874449642920813e-56  -3.7917630493060644e-57  -2.2214715057316938e-59  2.4869080114571641e-59  -2.4901195167741023e-60  2.2695871511083654e-61  1.3776512898507270e-05  1.2331585814463390e-05  1.5964793751739638e-05  1.4443411214085570e-05  9.0169880990306257e-06  5.1784780960019090e-06  3.5190633646538442e-06  1.2031206584506397e-06  3.2367158343649732e-07  8.0263893025387595e-08  1.6766038369602772e-08  2.7316375476286936e-09  2.9477086696760251e-10  4.4626197161136302e-12  -6.1674296116275493e-12  -1.4959892418259811e-12  -1.8648677258412827e-13  -7.5788803220550605e-15  2.0433324745518611e-15  4.8671553312220878e-16  4.1887315667312296e-17  -2.7686407392496264e-18  -1.3270389203850081e-18  -1.6314104429909185e-19  1.5009050996289766e-21  4.0078967464237911e-21  7.2635654787129293e-22  5.6775757157901228e-23  -2.6411218789445503e-24  -1.4001531886096673e-24  -2.1133093054878512e-25  -1.9653383387887365e-26  -1.1924145960305347e-27  -3.7133856627866812e-29  1.4672023672880243e-30  3.2896054102068693e-31  2.3168907168727057e-32  -1.0486965248591600e-34  -1.4148315435684674e-34  -5.3392687813799404e-36  5.6756194069108536e-37  2.7947816009415869e-38  -2.9052323387427344e-39  -8.2281865965058760e-41  1.5967054362502825e-41  -1.3766579654401677e-43  -6.8821904298507113e-44  3.9297146031763588e-45  1.1120872459314196e-46  -2.5488556376008870e-47  1.1497265197784623e-48  4.3006301242383600e-50  -9.0540305425997089e-51  5.1321502152619527e-52  2.5054265036627584e-54  -2.8438278222012763e-54  2.5929141527950962e-55  -1.0984899661390303e-56  -3.5505835930884162e-58  1.1051368029120076e-58  -1.0208511199171102e-59  8.1725061247360229e-61  7.6461680909981460e-06  6.9555204158769525e-06  8.7691453178580516e-06  7.8877557392182801e-06  4.8168309467212464e-06  1.9745236460298006e-06  6.6902933862665592e-07  1.7752892566234524e-07  4.0253784269924725e-08  7.1509346258483449e-09  8.0390647434324504e-10  -1.2016745019092515e-11  -2.9673911890026456e-11  -7.2708487776532892e-12  -9.1392642974210314e-13  -1.4759587523176844e-14  2.0131365456834836e-14  4.6805210984951669e-15  5.0673440205916160e-16  -2.8726548380737546e-19  -1.0010949889499500e-17  -1.6244178875965942e-18  -4.7758628680179477e-20  2.8467729821720153e-20  5.8718174232915823e-21  3.7364914302820726e-22  -5.8629772767022371e-23  -1.6712747928472502e-23  -1.5796049845373567e-24  3.8456060981439709e-26  3.1400020890468971e-26  4.5618601182669675e-27  3.7561948844503042e-28  2.0096381040363960e-29  9.6359044645279591e-31  6.5273477053675976e-32  2.3851149231100988e-33  -2.4656329772400722e-34  -2.3107022879517115e-35  7.9647659686726959e-37  1.0594347233426432e-37  -5.0440402104459852e-39  -3.6695449710674183e-40  3.4613255890977260e-41  2.2279648016213220e-43  -1.7239823463866745e-43  9.3664628184776620e-45  2.7358996531599022e-46  -7.2415225870485399e-47  3.9660350816072408e-48  1.0760680390625896e-49  -3.2592190517197146e-50  2.1488561591372228e-51  8.1356985751019664e-54  -1.3511631292401855e-53  1.1910595317278755e-54  -3.5033880081448132e-56  -3.4210849171042271e-57  5.6570316438122783e-58  -4.0078054313081794e-59  1.8100110594337258e-60  3.7006778719457007e-06  3.5319568450095574e-06  4.0118485283640286e-06  3.5451663958088772e-06  2.1990134439032202e-06  9.4241242211609310e-07  3.1536808639390356e-07  8.1047252129347369e-08  1.6036231653651646e-08  1.9769264382310999e-09  -5.2967979975988940e-11  -9.7753241137917712e-11  -2.5400644697915713e-11  -3.0588167063037708e-12  1.4768471444889945e-13  1.4729737475407100e-13  3.2291069082772452e-14  3.3638148068395941e-15  -1.2760767562819172e-16  -1.1729367573386562e-16  -2.1921433126707423e-17  -1.7641665202219359e-18  1.1995192998848782e-19  5.1530484143231384e-20  5.0310747973393696e-21  -3.3274965697181765e-22  -1.4359544732778400e-22  -1.0701680937534662e-23  1.9599601718285702e-24  5.6633712368456557e-25  5.1503257221946863e-26  -2.0735829325733923e-27  -1.1054178020523639e-27  -1.2938129290105256e-28  -5.4637394917092675e-30  3.3485807958974418e-31  5.0932466914641422e-32  1.1193430614084313e-33  -1.5545840809212650e-34  -7.2639151347047596e-36  4.2254155929538559e-37  2.1439073291685762e-38  -1.3370671415816600e-39  -3.6821663496292837e-41  1.8722689471245945e-42  -2.1202956095055379e-44  1.9953406821986577e-44  -8.9826918751046012e-46  -1.7003449450033973e-46  1.9837295746836747e-47  -5.4239410719581650e-50  -1.3872046552751258e-49  1.0807916836045512e-50  4.5984059178362338e-53  -7.2650640679517824e-53  5.9224156040623949e-54  -7.6031854378424692e-56  -2.8430486509834408e-56  3.1051335295676914e-57  -1.3044895792866641e-58  -9.2493086055845813e-60  2.5111755299055060e-06  2.6038632632253967e-06  2.5720678229972189e-06  2.2094908039029849e-06  1.3703369797331265e-06  5.9216006596246882e-07  1.9032359783340853e-07  4.4327053990534785e-08  6.5653997192754527e-09  -2.1359206915447245e-11  -3.4711894242253157e-10  -1.0757615508018957e-10  -1.5218883044416705e-11  6.3770717662606533e-13  8.5553603098158023e-13  2.0951517701301931e-13  2.3462279751379487e-14  -1.3049315410822466e-15  -1.0990166802458525e-15  -2.2812911635730272e-16  -2.2492659120368696e-17  8.3690893886916971e-19  6.7662873690074054e-19  1.0490912458303186e-19  4.0862795105937874e-21  -1.2472721458246377e-21  -1.9782696348624240e-22  1.0195022840248492e-23  7.0341213943727297e-24  8.5734954829190208e-25  -2.8744562567392054e-26  -2.2971429389788895e-26  -3.0149747761380942e-27  -6.2509072685052208e-29  3.5717191587548491e-29  5.7663159745602176e-30  3.9705645317746760e-31  5.1076676085248626e-33  -1.1099140779358694e-33  -4.8835921384993442e-35  3.0124273025915938e-36  2.1910974322614565e-37  -6.8794229295451942e-39  -6.5389093282694790e-40  1.2034910315000189e-41  1.6786354689204530e-42  4.1340352248269407e-44  -9.3867708900895905e-45  -5.5084220521240603e-46  9.7777344188419610e-47  -2.4163194466892301e-49  -6.9440331482060153e-49  4.7353655055951927e-50  1.2605775525068215e-51  -3.9889749190166609e-52  2.3815412341248274e-53  4.6766075525019858e-55  -1.8648433308686186e-55  1.3851723785213846e-56  -1.6286498851823201e-58  -1.0170585736703371e-58  </DataArray> 
</PointData> 
</Piece>
</UnstructuredGrid>
</VTKFile>