<?xml version="1.0"?>
<VTKFile type="UnstructuredGrid"  version="0.1"  >
<UnstructuredGrid>
<Piece  NumberOfPoints="670" NumberOfCells="1192">
<Points>
<DataArray  type="Float64"  NumberOfComponents="3"  format="ascii">0 0 0  0.04 -1.31357e-10 0  0.0400579 0.0400582 0  0 0.04 0  0.08 -2.62713e-10 0  0.080123 0.0401093 0  0.12 -3.9407e-10 0  0.120183 0.040127 0  0.16 -5.25427e-10 0  0.160176 0.0400597 0  0.2 -6.56784e-10 0  0.199997 0.0399142 0  0.24 -7.8814e-10 0  0.239816 0.0400642 0  0.28 -9.19497e-10 0  0.279804 0.0401377 0  0.32 -1.05085e-09 0  0.319855 0.0401297 0  0.36 -1.18221e-09 0  0.359906 0.0400945 0  0.4 -1.31357e-09 0  0.399941 0.0400609 0  0.44 -1.44492e-09 0  0.439962 0.0400367 0  0.48 -1.57628e-09 0  0.479975 0.0400214 0  0.52 -1.70764e-09 0  0.519983 0.0400122 0  0.5600000000000001 -1.83899e-09 0  0.559987 0.0400069 0  0.6 -1.97035e-09 0  0.59999 0.040004 0  0.64 -2.10171e-09 0  0.639993 0.0400023 0  0.68 -2.23306e-09 0  0.679994 0.0400013 0  0.72 -2.36442e-09 0  0.7199950000000001 0.0400008 0  0.76 -2.49578e-09 0  0.759996 0.0400005 0  0.8 -2.62713e-09 0  0.799997 0.0400002 0  0.84 -2.75849e-09 0  0.839997 0.0400001 0  0.88 -2.88985e-09 0  0.8799979999999999 0.04 0  0.92 -3.0212e-09 0  0.919999 0.0399999 0  0.96 -3.15256e-09 0  0.959999 0.0399998 0  1 -3.28392e-09 0  1 0.0399998 0  1.04 -3.41527e-09 0  1.04 0.0399998 0  1.08 -3.54663e-09 0  1.08 0.0399998 0  1.12 -3.67799e-09 0  1.12 0.0399998 0  1.16 -3.80934e-09 0  1.16 0.0399999 0  1.2 -3.9407e-09 0  1.2 0.04 0  1.24 -4.07206e-09 0  1.24 0.04 0  1.28 -4.20341e-09 0  1.28 0.0400001 0  1.32 -4.33477e-09 0  1.32 0.0400001 0  1.36 -4.46613e-09 0  1.36 0.04 0  1.4 -4.59748e-09 0  1.4 0.04 0  1.44 -4.72884e-09 0  1.44 0.04 0  1.48 -4.8602e-09 0  1.48 0.04 0  1.52 -4.99156e-09 0  1.52 0.04 0  1.56 -5.12291e-09 0  1.56 0.04 0  1.6 -5.25427e-09 0  1.6 0.0400001 0  1.64 -5.38563e-09 0  1.64 0.0400001 0  1.68 -5.51698e-09 0  1.68 0.04 0  1.72 -5.64834e-09 0  1.72 0.04 0  1.76 -5.7797e-09 0  1.76 0.04 0  1.8 -5.91105e-09 0  1.8 0.04 0  1.84 -6.04241e-09 0  1.84 0.04 0  1.88 -6.17377e-09 0  1.88 0.0400001 0  1.92 -6.30512e-09 0  1.92 0.0400001 0  1.96 -6.43648e-09 0  1.96 0.0400001 0  2 -6.56784e-09 0  2 0.0400001 0  2.04 -6.69919e-09 0  2.04 0.0400001 0  2.08 -6.83055e-09 0  2.08 0.04 0  2.12 -6.96191e-09 0  2.12 0.04 0  2.16 -7.09326e-09 0  2.16 0.0400001 0  2.2 -7.22462e-09 0  2.2 0.04 0  2.24 -7.35598e-09 0  2.24 0.04 0  2.28 -7.48733e-09 0  2.28 0.0399999 0  2.32 -7.618690000000001e-09 0  2.32 0.04 0  2.36 -7.750049999999999e-09 0  2.36 0.04 0  2.4 -7.8814e-09 0  2.4 0.04 0  0.0401088 0.0801235 0  0 0.08 0  0.0802509 0.0802518 0  0.120434 0.0803392 0  0.160522 0.0801977 0  0.199995 0.0795328 0  0.239464 0.0802049 0  0.279544 0.08035689999999999 0  0.319711 0.0802867 0  0.359828 0.08018740000000001 0  0.399896 0.0801123 0  0.439933 0.0800646 0  0.479955 0.0800365 0  0.519968 0.08002049999999999 0  0.559976 0.0800116 0  0.599982 0.0800066 0  0.6399860000000001 0.0800039 0  0.679989 0.0800023 0  0.719991 0.0800014 0  0.759992 0.0800008 0  0.799994 0.0800004 0  0.839995 0.08000019999999999 0  0.879996 0.0799999 0  0.919997 0.07999970000000001 0  0.959999 0.0799996 0  1 0.0799995 0  1.04 0.0799995 0  1.08 0.0799996 0  1.12 0.07999970000000001 0  1.16 0.0799998 0  1.2 0.08 0  1.24 0.0800001 0  1.28 0.0800001 0  1.32 0.0800001 0  1.36 0.08 0  1.4 0.0799999 0  1.44 0.0799999 0  1.48 0.0799999 0  1.52 0.0799999 0  1.56 0.08 0  1.6 0.0800001 0  1.64 0.0800001 0  1.68 0.08 0  1.72 0.0799999 0  1.76 0.0799999 0  1.8 0.0799999 0  1.84 0.0799999 0  1.88 0.08 0  1.92 0.0800001 0  1.96 0.0800001 0  2 0.0800001 0  2.04 0.08 0  2.08 0.0799999 0  2.12 0.0799999 0  2.16 0.08 0  2.2 0.08 0  2.24 0.0799999 0  2.28 0.0799998 0  2.32 0.0799999 0  2.36 0.0799999 0  2.4 0.08 0  0.0401262 0.120184 0  0 0.12 0  0.0803378 0.120435 0  0.120779 0.12078 0  0.161485 0.120859 0  0.199996 0.117814 0  0.238503 0.120866 0  0.279195 0.120798 0  0.319616 0.120473 0  0.359799 0.120256 0  0.39988 0.120136 0  0.439921 0.120073 0  0.479944 0.120039 0  0.519958 0.120022 0  0.5599690000000001 0.120012 0  0.599976 0.120007 0  0.639981 0.120004 0  0.679985 0.120002 0  0.719987 0.120002 0  0.7599900000000001 0.120001 0  0.799991 0.12 0  0.839993 0.12 0  0.879995 0.12 0  0.919996 0.12 0  0.959998 0.119999 0  1 0.119999 0  1.04 0.119999 0  1.08 0.119999 0  1.12 0.12 0  1.16 0.12 0  1.2 0.12 0  1.24 0.12 0  1.28 0.12 0  1.32 0.12 0  1.36 0.12 0  1.4 0.12 0  1.44 0.12 0  1.48 0.12 0  1.52 0.12 0  1.56 0.12 0  1.6 0.12 0  1.64 0.12 0  1.68 0.12 0  1.72 0.12 0  1.76 0.12 0  1.8 0.12 0  1.84 0.12 0  1.88 0.12 0  1.92 0.12 0  1.96 0.12 0  2 0.12 0  2.04 0.12 0  2.08 0.12 0  2.12 0.12 0  2.16 0.12 0  2.2 0.12 0  2.24 0.12 0  2.28 0.12 0  2.32 0.12 0  2.36 0.12 0  2.4 0.12 0  0.0400582 0.160177 0  0 0.16 0  0.0801954 0.160525 0  0.120857 0.161488 0  0.164645 0.164645 0  0.2 0.15 0  0.235355 0.164645 0  0.279119 0.161498 0  0.319759 0.16055 0  0.359874 0.160228 0  0.399906 0.160104 0  0.439925 0.160051 0  0.479941 0.160027 0  0.519954 0.160014 0  0.559964 0.160008 0  0.5999719999999999 0.160005 0  0.639978 0.160003 0  0.679982 0.160002 0  0.719985 0.160001 0  0.759988 0.160001 0  0.79999 0.16 0  0.839992 0.16 0  0.8799940000000001 0.16 0  0.919996 0.159999 0  0.959998 0.159999 0  1 0.159999 0  1.04 0.159999 0  1.08 0.159999 0  1.12 0.16 0  1.16 0.16 0  1.2 0.16 0  1.24 0.16 0  1.28 0.16 0  1.32 0.16 0  1.36 0.16 0  1.4 0.16 0  1.44 0.16 0  1.48 0.16 0  1.52 0.16 0  1.56 0.16 0  1.6 0.16 0  1.64 0.16 0  1.68 0.16 0  1.72 0.16 0  1.76 0.16 0  1.8 0.16 0  1.84 0.16 0  1.88 0.16 0  1.92 0.16 0  1.96 0.16 0  2 0.16 0  2.04 0.16 0  2.08 0.16 0  2.12 0.16 0  2.16 0.16 0  2.2 0.16 0  2.24 0.16 0  2.28 0.16 0  2.32 0.16 0  2.36 0.16 0  2.4 0.16 0  0.0399111 0.2 0  0 0.2 0  0.0795281 0.2 0  0.117811 0.2 0  0.15 0.2 0  0.282167 0.2 0  0.25 0.2 0  0.320429 0.2 0  0.36003 0.200001 0  0.399944 0.200001 0  0.439934 0.200001 0  0.479942 0.200001 0  0.519953 0.200001 0  0.559963 0.200001 0  0.59997 0.200001 0  0.639976 0.200001 0  0.6799809999999999 0.200001 0  0.719984 0.200001 0  0.759987 0.200001 0  0.799989 0.2 0  0.839991 0.2 0  0.879993 0.2 0  0.919996 0.199999 0  0.959998 0.199999 0  1 0.199999 0  1.04 0.199999 0  1.08 0.199999 0  1.12 0.2 0  1.16 0.2 0  1.2 0.2 0  1.24 0.2 0  1.28 0.2 0  1.32 0.2 0  1.36 0.2 0  1.4 0.2 0  1.44 0.2 0  1.48 0.2 0  1.52 0.2 0  1.56 0.2 0  1.6 0.2 0  1.64 0.2 0  1.68 0.2 0  1.72 0.2 0  1.76 0.2 0  1.8 0.2 0  1.84 0.2 0  1.88 0.2 0  1.92 0.2 0  1.96 0.2 0  2 0.2 0  2.04 0.2 0  2.08 0.2 0  2.12 0.2 0  2.16 0.2 0  2.2 0.2 0  2.24 0.2 0  2.28 0.2 0  2.32 0.2 0  2.36 0.2 0  2.4 0.2 0  0.0400582 0.239823 0  0 0.24 0  0.0801953 0.239475 0  0.120857 0.238513 0  0.164645 0.235355 0  0.279119 0.238502 0  0.235355 0.235355 0  0.319759 0.239451 0  0.359873 0.239774 0  0.399905 0.239898 0  0.439925 0.239951 0  0.479941 0.239976 0  0.519954 0.239988 0  0.559964 0.239994 0  0.5999719999999999 0.239997 0  0.639977 0.239999 0  0.679982 0.24 0  0.719985 0.24 0  0.759987 0.24 0  0.79999 0.24 0  0.839992 0.24 0  0.8799940000000001 0.24 0  0.919996 0.239999 0  0.959998 0.239999 0  1 0.239999 0  1.04 0.239999 0  1.08 0.239999 0  1.12 0.24 0  1.16 0.24 0  1.2 0.24 0  1.24 0.24 0  1.28 0.24 0  1.32 0.24 0  1.36 0.24 0  1.4 0.24 0  1.44 0.24 0  1.48 0.24 0  1.52 0.24 0  1.56 0.24 0  1.6 0.24 0  1.64 0.24 0  1.68 0.24 0  1.72 0.24 0  1.76 0.24 0  1.8 0.24 0  1.84 0.24 0  1.88 0.24 0  1.92 0.24 0  1.96 0.24 0  2 0.24 0  2.04 0.24 0  2.08 0.24 0  2.12 0.24 0  2.16 0.24 0  2.2 0.24 0  2.24 0.24 0  2.28 0.24 0  2.32 0.24 0  2.36 0.24 0  2.4 0.24 0  0.0401261 0.279816 0  0 0.28 0  0.0803376 0.279565 0  0.120778 0.27922 0  0.161485 0.279141 0  0.2 0.25 0  0.199996 0.282186 0  0.238503 0.279135 0  0.279195 0.279202 0  0.319616 0.279528 0  0.359799 0.279745 0  0.39988 0.279865 0  0.43992 0.279929 0  0.479944 0.279962 0  0.519958 0.27998 0  0.559968 0.27999 0  0.599976 0.279995 0  0.639981 0.279998 0  0.679984 0.279999 0  0.719987 0.28 0  0.759989 0.28 0  0.799991 0.28 0  0.839993 0.28 0  0.879995 0.28 0  0.919997 0.279999 0  0.959998 0.279999 0  1 0.279999 0  1.04 0.279999 0  1.08 0.28 0  1.12 0.28 0  1.16 0.28 0  1.2 0.28 0  1.24 0.28 0  1.28 0.28 0  1.32 0.28 0  1.36 0.28 0  1.4 0.28 0  1.44 0.28 0  1.48 0.28 0  1.52 0.28 0  1.56 0.28 0  1.6 0.28 0  1.64 0.28 0  1.68 0.28 0  1.72 0.28 0  1.76 0.28 0  1.8 0.28 0  1.84 0.28 0  1.88 0.28 0  1.92 0.28 0  1.96 0.28 0  2 0.28 0  2.04 0.28 0  2.08 0.28 0  2.12 0.28 0  2.16 0.28 0  2.2 0.28 0  2.24 0.28 0  2.28 0.28 0  2.32 0.28 0  2.36 0.28 0  2.4 0.28 0  0.0401086 0.319877 0  0 0.32 0  0.08025060000000001 0.319748 0  0.120433 0.319661 0  0.160522 0.319802 0  0.199995 0.320467 0  0.239464 0.319795 0  0.279543 0.319643 0  0.31971 0.319714 0  0.359828 0.319813 0  0.399895 0.319889 0  0.439933 0.319937 0  0.479955 0.319965 0  0.519968 0.319981 0  0.559976 0.31999 0  0.599982 0.319995 0  0.6399860000000001 0.319998 0  0.679989 0.319999 0  0.719991 0.32 0  0.759992 0.32 0  0.799994 0.32 0  0.839995 0.32 0  0.879996 0.32 0  0.919998 0.32 0  0.959999 0.32 0  1 0.32 0  1.04 0.32 0  1.08 0.32 0  1.12 0.32 0  1.16 0.32 0  1.2 0.32 0  1.24 0.32 0  1.28 0.32 0  1.32 0.32 0  1.36 0.32 0  1.4 0.32 0  1.44 0.32 0  1.48 0.32 0  1.52 0.32 0  1.56 0.32 0  1.6 0.32 0  1.64 0.32 0  1.68 0.32 0  1.72 0.32 0  1.76 0.32 0  1.8 0.32 0  1.84 0.32 0  1.88 0.32 0  1.92 0.32 0  1.96 0.32 0  2 0.32 0  2.04 0.32 0  2.08 0.32 0  2.12 0.32 0  2.16 0.32 0  2.2 0.32 0  2.24 0.32 0  2.28 0.32 0  2.32 0.32 0  2.36 0.32 0  2.4 0.32 0  0.0400579 0.359942 0  0 0.36 0  0.0801229 0.359891 0  0.120183 0.359873 0  0.160175 0.35994 0  0.199997 0.360086 0  0.239816 0.359936 0  0.279804 0.359862 0  0.319855 0.359871 0  0.359906 0.359906 0  0.399941 0.35994 0  0.439962 0.359964 0  0.479975 0.359979 0  0.5199820000000001 0.359989 0  0.559987 0.359994 0  0.59999 0.359997 0  0.639993 0.359998 0  0.679994 0.359999 0  0.7199950000000001 0.36 0  0.759996 0.36 0  0.799997 0.36 0  0.839997 0.36 0  0.8799979999999999 0.36 0  0
[...]
<PointData  Scalars="f_10391-2"> 
<DataArray  type="Float64"  Name="f_10391-2"  format="ascii">3.2531958836243621e-04  3.2444527780016718e-04  3.4164272886516491e-04  3.4264188589579349e-04  3.0950927358933952e-04  3.2857089493086632e-04  2.7262715641386911e-04  2.8939189559651476e-04  2.2003512260336793e-04  2.3087444723227983e-04  1.6587093102344533e-04  1.7157856690732984e-04  1.1929109270914209e-04  1.2189657988680383e-04  8.3264891568260322e-05  8.4387171340204696e-05  5.6857183195658934e-05  5.7351572248048908e-05  3.8057749057365734e-05  3.8284863051408797e-05  2.4958532479916124e-05  2.5062381478825544e-05  1.6018399062406216e-05  1.6061326344059670e-05  1.0050153465391928e-05  1.0062782338227907e-05  6.1588901601816304e-06  6.1576710816664683e-06  3.6839872652440269e-06  3.6777160724800028e-06  2.1497928600463946e-06  2.1427029372411950e-06  1.2233836744807025e-06  1.2172560610084497e-06  6.7869423983765451e-07  6.7406897523309980e-07  3.6695754579754556e-07  3.6374261653612740e-07  1.9332629864131089e-07  1.9122566085698482e-07  9.9224069805293798e-08  9.7919507026107201e-08  4.9604441663311227e-08  4.8830283859962920e-08  2.4151093869737509e-08  2.3709127031598734e-08  1.1449962719135402e-08  1.1206848326814038e-08  5.2852055582087742e-09  5.1562352463079725e-09  2.3749422140280186e-09  2.3087409251852780e-09  1.0387623340252839e-09  1.0059028150377799e-09  4.4217128980095738e-10  4.2637582947146123e-10  1.8315250158911891e-10  1.7579514132971407e-10  7.3810351776143728e-11  7.0488234645468040e-11  2.8935765245856726e-11  2.7481175448830024e-11  1.1033007634039897e-11  1.0415292386409496e-11  4.0909047816815589e-12  3.8364395154395267e-12  1.4747999706933345e-12  1.3731048306574204e-12  5.1683711691428993e-13  4.7740742595016608e-13  1.7603405881287244e-13  1.6120172897817134e-13  5.8260484252942403e-14  5.2847315486123038e-14  1.8732432719441218e-14  1.6815830141256300e-14  5.8500746137534664e-15  5.1917763248237164e-15  1.7740911387826870e-15  1.5547678008682882e-15  5.2231623346564253e-16  4.5144404076014278e-16  1.4925336708573334e-16  1.2704383629839133e-16  4.1383917303303447e-17  3.4635370271206573e-17  1.1130978692668424e-17  9.1429556367074139e-18  2.9033428562600432e-18  2.3356758369041680e-18  7.3415166840673354e-19  5.7706500269578485e-19  1.7990509381476832e-19  1.3778780936124146e-19  4.2707666966703934e-20  3.1769349507227673e-20  9.8172543169856585e-21  7.0662848534629869e-21  2.1842049665057121e-21  1.5144275355007045e-21  4.7009816278515296e-22  3.1228938455906899e-22  9.7817775253620272e-23  6.1849972433548195e-23  1.9664582968857346e-23  1.1738175906644335e-23  3.8163358378571446e-24  2.1282686311633081e-24  7.1433334256017503e-25  3.6712742735264136e-25  1.2881574708476876e-25  5.9895514523842287e-26  2.2350890621443590e-26  9.1593476962835415e-27  3.7268763159633540e-27  1.2946983571515343e-27  5.9801869259966437e-28  1.6625875726902885e-28  9.6175370238849523e-29  2.0579156673431794e-29  3.2493144565879380e-29  5.7440840568468049e-30  3.8241224382046907e-04  3.8035965561144245e-04  3.7563840778104826e-04  3.3328766378187108e-04  2.6041087971825412e-04  1.8680157929736008e-04  1.2835816385242563e-04  8.7107912942085256e-05  5.8667766989249414e-05  3.9006091844260989e-05  2.5474576614300639e-05  1.6294015222325384e-05  1.0189491265742257e-05  6.2237302325672145e-06  3.7104626677969501e-06  2.1580191556963696e-06  1.2239327367133068e-06  6.7667488543746909e-07  3.6458062199871805e-07  1.9137573788270823e-07  9.7846419158826843e-08  4.8718463530142290e-08  2.3617961065817889e-08  1.1145840984273928e-08  5.1194044451769904e-09  2.2882492346116696e-09  9.9514983690757963e-10  4.2100383173634588e-10  1.7322641802316234e-10  6.9308357395985091e-11  2.6959397812842562e-11  1.0192787234180346e-11  3.7448476889875830e-12  1.3366851737685769e-12  4.6341241306009096e-13  1.5600330320639462e-13  5.0980676889690019e-14  1.6167931732593081e-14  4.9744471985813961e-15  1.4843394713402755e-15  4.2940551012469133e-16  1.2038906197927219e-16  3.2697914624490647e-17  8.5997065973468036e-18  2.1891855413137534e-18  5.3914810630361337e-19  1.2839182613440064e-19  2.9548315735376405e-20  6.5681458951253243e-21  1.4093005958864877e-21  2.9170507980005707e-22  5.8209524958143866e-23  1.1191866658427482e-23  2.0723555129848757e-24  3.6946362587725565e-25  6.3430973968989885e-26  1.0497209421124477e-26  1.6791756576494528e-27  2.6211336320887996e-28  4.2404757704002850e-29  1.4104691132507115e-29  4.2333359541678372e-04  4.1980448453513589e-04  4.2134553698951562e-04  3.8076552587557749e-04  2.9756761235032072e-04  2.0426111768486678e-04  1.3340955759552758e-04  8.8827273528391284e-05  5.9709233697807491e-05  3.9736698295625479e-05  2.5954601519870842e-05  1.6584586312188008e-05  1.0354501908564917e-05  6.3127201579892658e-06  3.7562532919680066e-06  2.1806350023293527e-06  1.2346121273142035e-06  6.8146484049606474e-07  3.6660125228965134e-07  1.9215008086175468e-07  9.8106036450758976e-08  4.8779806607633519e-08  2.3615027381503539e-08  1.1129185425353600e-08  5.1046465103122248e-09  2.2783576962098242e-09  9.8938830878545004e-10  4.1792528937987446e-10  1.7168436147795767e-10  6.8575893474087206e-11  2.6627305420543426e-11  1.0048456037965193e-11  3.6845500447328185e-12  1.3124246252231768e-12  4.5399992716739328e-13  1.5247888997344617e-13  4.9706295859585960e-14  1.5722797520316421e-14  4.8242186256956313e-15  1.4353482543931887e-15  4.1396828689486876e-16  1.1568939733537700e-16  3.1315808475003304e-17  8.2071567543893989e-18  2.0815353224729019e-18  5.1065281108696478e-19  1.2111314162571747e-19  2.7754593170809283e-20  6.1417320915583011e-21  1.3115050391264635e-21  2.7005701637739099e-22  5.3579586466571194e-23  1.0233283597443104e-23  1.8796099215308583e-24  3.3163461142424057e-25  5.6131542216188490e-26  9.0994678393387638e-27  1.4106794997950555e-27  2.0968773454422013e-28  3.1501136263246605e-29  9.5302058504295616e-30  4.4960424451302310e-04  4.4711690875079614e-04  4.4713008756766071e-04  4.1532112340091228e-04  3.4446489722840556e-04  2.1208902815781936e-04  1.2365859555937887e-04  8.5916436027560299e-05  5.9414195418525997e-05  4.0058996968980023e-05  2.6287178258723467e-05  1.6810903203564901e-05  1.0487497576362664e-05  6.3849144924868145e-06  3.7934158756978714e-06  2.1988285752502394e-06  1.2430865985487135e-06  6.8519927270115347e-07  3.6812260009004939e-07  1.9270511718767257e-07  9.8267435099612602e-08  4.8800918830395098e-08  2.3596644906168726e-08  1.1106675682252525e-08  5.0879179298485131e-09  2.2679351835699034e-09  9.8352873500687042e-10  4.1486039705944264e-10  1.7017032026469355e-10  6.7863733229431340e-11  2.6306629723583540e-11  9.9097656208816672e-12  3.6268097332508885e-12  1.2892493555548137e-12  4.4502260455363568e-13  1.4912027988569216e-13  4.8492122350764913e-14  1.5298512838220000e-14  4.6808761260471927e-15  1.3885236905304031e-15  3.9917841543615010e-16  1.1117261219553838e-16  2.9982211259229616e-17  7.8265412303992896e-18  1.9765471320750093e-18  4.8266912490486628e-19  1.1390725410567779e-19  2.5962378842544724e-20  5.7112847215707122e-21  1.2116922261632283e-21  2.4771610529703583e-22  4.8753568799470206e-23  9.2273325010465825e-24  1.6773161044889653e-24  2.9239838853573740e-25  4.8795364417672211e-26  7.7784894376128452e-27  1.1819497840110859e-27  1.7155066769158638e-28  2.5075409811556669e-29  7.4334265039547565e-30  4.6047126160677336e-04  4.5829482914170835e-04  4.5676790623666992e-04  4.3210568392832902e-04  4.0017201150832719e-04  7.9895187871696315e-05  9.7580211334524354e-05  5.8422090980569897e-05  4.0051795748403971e-05  2.6402994913180686e-05  1.6898674525770586e-05  1.0538266272027974e-05  6.4110033276355695e-06  3.8056524836116911e-06  2.2040500136062029e-06  1.2449790310342839e-06  6.8565405009174492e-07  3.6805626679497714e-07  1.9250532545413179e-07  9.8079445613913414e-08  4.8663177003791171e-08  2.3507571553870837e-08  1.1053366352068825e-08  5.0580669741035579e-09  2.2520551579207770e-09  9.7545044078621477e-10  4.1091516115236554e-10  1.6831563502582255e-10  6.7023016460532174e-11  2.5938703273299706e-11  9.7541758450780205e-12  3.5631929408939289e-12  1.2640892140007650e-12  4.3539486874318304e-13  1.4555514883086307e-13  4.7214504599777350e-14  1.4855409728873930e-14  4.5321575034653401e-15  1.3402245913756962e-15  3.8400217458591190e-16  1.0655984061930324e-16  2.8626283965527905e-17  7.4411729396365294e-18  1.8706816692821055e-18  4.5456761645001638e-19  1.0670211517063561e-19  2.4178713303281251e-20  5.2851542149494772e-21  1.1134943403074481e-21  2.2590239795168195e-22  4.4085705123009690e-23  8.2659430998989559e-24  1.4869380978553312e-24  2.5620012405100669e-25  4.2198415082354353e-26  6.6288570305362847e-27  9.9089366972262291e-28  1.4123842079951893e-28  2.0242074615926357e-29  5.9094609551085598e-30  4.5365855277128086e-04  4.4992314055121381e-04  4.4866146330569583e-04  4.0994050631263838e-04  3.3907938021939904e-04  8.6009687482694371e-05  1.2451074495877819e-04  5.9630541197407740e-05  4.0195600587581313e-05  2.6347678912686917e-05  1.6830150569164372e-05  1.0488685671391976e-05  6.3796047781920512e-06  3.7868008344466618e-06  2.1929663324222911e-06  1.2385898495862351e-06  6.8200101941906212e-07  3.6599183228720837e-07  1.9135727974430290e-07  9.7447192865939762e-08  4.8322148291297570e-08  2.3327376769060258e-08  1.0960515557527572e-08  5.0112608033721388e-09  2.2290583184783249e-09  9.6445038901948305e-10  4.0579805940274249e-10  1.6600172701206119e-10  6.6006689235456142e-11  2.5505293143763219e-11  9.5747948986313322e-12  3.4911620266289216e-12  1.2360351984685154e-12  4.2480032286718017e-13  1.4167664954132506e-13  4.5838486339181605e-14  1.4382423530225363e-14  4.3746800231194892e-15  1.2894540669372461e-15  3.6815690133560977e-16  1.0177412443042604e-16  2.7227957947127728e-17  7.0460530727197894e-18  1.7627520265647264e-18  4.2607958991322268e-19  9.9439465166868082e-20  2.2391318751224335e-20  4.8607339056997297e-21  1.0163200887376663e-21  2.0446465362256209e-22  3.9532369761454933e-23  7.3356981062563964e-24  1.3043356641110331e-24  2.2180535128579583e-25  3.5991441800047379e-26  5.5576184749705227e-27  8.1435603129353417e-28  1.1337447348214210e-28  1.5806670009736612e-29  4.5009031640943294e-30  4.2469950137293997e-04  4.1955031855642292e-04  4.2199417863364707e-04  3.7873483314799627e-04  2.9636049544559402e-04  2.1517028249021713e-04  2.0256185508348403e-04  1.3455363057455100e-04  8.9549038873469635e-05  6.0133602069533350e-05  3.9949945250824574e-05  2.6043257201282964e-05  1.6609945738731438e-05  1.0351622489769645e-05  6.2999992350495554e-06  3.7421950677358458e-06  2.1685121189000413e-06  1.2253858634248271e-06  6.7497707621535893e-07  3.6228394305533994e-07  1.8941974981535587e-07  9.6447662121868833e-08  4.7812236386067904e-08  2.3070963240409811e-08  1.0833708918433298e-08  4.9498050556017163e-09  2.1998284944419520e-09  9.5085380302616153e-10  3.9962079550649214e-10  1.6326468016479560e-10  6.4825316835911434e-11  2.5008982733002442e-11  9.3720122158111364e-12  3.4106390064886062e-12  1.2049780310837933e-12  4.1317171566997045e-13  1.3745179356901846e-13  4.4349724278467522e-14  1.3873807479829138e-14  4.2062825919471072e-15  1.2354415788754578e-15  3.5138048241413285e-16  9.6730052531327773e-17  2.5760499947850061e-17  6.6331288500159540e-18  1.6504201597353049e-18  3.9654994763213818e-19  9.1942000529247102e-20  2.0553806536097996e-20  4.4262838681933294e-21  9.1729446037917089e-22  1.8272156797138431e-22  3.4937399530689889e-23  6.4020195152478184e-24  1.1221313138516690e-24  1.8770418212659283e-25  2.9880356534766326e-26  4.5110286001681408e-27  6.4336875692014288e-28  8.6672185442408023e-29  1.1633857843347146e-29  3.2103529656668358e-30  3.7756714232838360e-04  3.7485387861821613e-04  3.7311224315081962e-04  3.3520374216920376e-04  2.6391381611247443e-04  1.8825939172061152e-04  1.2962838314942125e-04  8.7834261776447876e-05  5.9084456468198193e-05  3.9211913932103609e-05  2.5554135772158822e-05  1.6307265286077514e-05  1.0173797217236157e-05  6.1991116164788543e-06  3.6864276818094233e-06  2.1382581186324061e-06  1.2091920703872891e-06  6.6640060357264473e-07  3.5779400161109355e-07  1.8709413245527692e-07  9.5254709277924472e-08  4.7208652749235209e-08  2.2769918348967531e-08  1.0685721044749321e-08  4.8783532976664846e-09  2.1660543739238609e-09  9.3521036574402621e-10  3.9254107690204811e-10  1.6013875332940826e-10  6.3479945753724400e-11  2.4445190337733349e-11  9.1421640679155921e-12  3.3195450370539120e-12  1.1699038013987506e-12  4.0005903351130082e-13  1.3269429112936933e-13  4.2675369060072649e-14  1.3302451666944017e-14  4.0173210894912196e-15  1.1748979182828983e-15  3.3259535628179106e-16  9.1088114026589658e-17  2.4120951241315827e-17  6.1723354549352495e-18  1.5252310841975758e-18  3.6368886681380394e-19  8.3612670029425963e-20  1.8516366995716425e-20  3.9456554630788320e-21  8.0803708785885881e-22  1.5880885905065676e-22  2.9903495145733115e-23  5.3839771841728571e-24  9.2461594970362069e-25  1.5100368079884833e-25  2.3362989887680851e-26  3.4077577726681657e-27  4.6585308955130718e-28  5.9538434333038225e-29  7.5464140495573283e-30  2.0101065420569161e-30  3.3537760267218054e-04  3.3685230586576507e-04  3.2517466099981821e-04  2.9213965147224428e-04  2.3572595067438917e-04  1.7445053513172641e-04  1.2343916406996563e-04  8.5153419449249059e-05  5.7720892233133333e-05  3.8434469408311800e-05  2.5093472777803880e-05  1.6035730838148048e-05  1.0016465515845510e-05  6.1096228657812983e-06  3.6362390044366277e-06  2.1104687433820086e-06  1.1939278985587185e-06  6.5810012433551560e-07  3.5331482237655035e-07  1.8469766806594791e-07  9.3989066083184800e-08  4.6549591749376085e-08  2.2431812455864839e-08  1.0515671169587973e-08  4.7944845714597464e-09  2.1256614413902239e-09  9.1619654929599820e-10  3.8381595675850554e-10  1.5623959347738427e-10  6.1784608408480750e-11  2.3728553870634827e-11  8.8478401731987626e-12  3.2021636001594268e-12  1.1244665791500934e-12  3.8299531869580145e-13  1.2647974711859981e-13  4.0481294320721507e-14  1.2551803383855843e-14  3.7685492599929691e-15  1.0950655011254137e-15  3.0779838658982233e-16  8.3636019151672532e-17  2.1955112333071700e-17  5.5638715886449325e-18  1.3600809627359182e-18  3.2040653282461994e-19  7.2666682823475056e-20  1.5847032850290789e-20  3.3184576210145747e-21  6.6617766898976383e-22  1.2795585254305142e-22  2.3459225353038262e-23  4.0932594660156888e-24  6.7717378895623780e-25  1.0570197079948967e-25  1.5465197132891823e-26  2.1014798488093706e-27  2.6184500109320396e-28  2.9583246353328691e-29  3.3053270803533124e-30  8.7237036826672901e-31  3.1955551895420167e-04  3.2411968809404734e-04  3.0656292462289222e-04  2.7488734506432659e-04  2.2428043179756872e-04  1.6855815631682886e-04  1.2053332351157975e-04  8.3728117663442014e-05  5.6961136332145835e-05  3.7997555177624117e-05  2.4830635119376759e-05  1.5874379145676159e-05  9.9168141326286591e-06  6.0479504264319892e-06  3.5982024348681739e-06  2.0871266578036135e-06  1.1797472400163765e-06  6.4957852570625112e-07  3.4827866173815767e-07  1.8177974338650166e-07  9.2335844577441012e-08  4.5634640507945815e-08  2.1938909079012910e-08  1.0257293939537774e-08  4.6628056029215053e-09  2.0604166129638260e-09  8.8480348894703353e-10  3.6915501719979664e-10  1.4959606642792017e-10  5.8864296109532674e-11  2.2483604225495024e-11  8.3332398560411372e-12  2.9959636580167495e-12  1.0443893695267002e-12  3.5286334062057837e-13  1.1549642066190931e-13  3.6604184676665946e-14  1.1226789806723924e-14  3.3302921366360813e-15  9.5482318901602127e-16  2.6439731664234432e-16  7.0652103262073669e-17  1.8202034584858416e-17  4.5162227933038160e-18  1.0778316920276699e-18  2.4706507271297243e-19  5.4299684457445562e-20  1.1417840984430637e-20  2.2909690144961433e-21  4.3714736981355583e-22  7.8969055739070355e-23  1.3421728010536733e-23  2.1268740420329209e-24  3.0977481793638391e-25  4.0437770997382775e-26  4.4875639236389142e-27  3.6267180961730429e-28  4.4669024097438149e-30  -5.6486902384337058e-30  -1.1813451665813660e-30  -1.0236812859890393e-31  </DataArray> 
</PointData> 
</Piece>
</UnstructuredGrid>
</VTKFile>